 ******************************************************************
 *************  stfc/ccp5  program  library  package  ** D ********
 *************  daresbury laboratory general purpose  *** L *******
 **         **  classical molecular dynamics program  **** \ ******
 ** DL_POLY **  authors:   i.t.todorov   &   w.smith  ***** P *****
 **         **  version:   4.09.4  /    march   2020  ****** O ****
 *************  execution on           1 process(es)  ******* L ***
 *************  contributors' list:                   ******** Y **
 *************  ------------------------------------  *************
 *************  i.j.bush, h.a.boateng, m.a.seaton     *************
 *************  a.v.brukhno, a.m.elena, r.davidchak   *************
 *************  s.l.daraszewicz, g.khara, s.t.murphy  *************
 *************  a.b.g.chalk, i.scivetti               *************
 ******************************************************************

 ******************************************************************
 **** birthday: Sep 30 2020 @ 15:19:34                         ****
 ****  machine: 403-a325-jj.vscht.cz                           ****
 ****  builder: dr faustroll                                   ****
 **** compiler: gfortran v9.3.0                                ****
 ****      MPI: v3.1                                           ****
 **** MPI libs: Open MPI v4.0.3, package: Debian OpenMPI, iden ****
 **** MPI libs: t: 4.0.3, repo rev: v4.0.3, Mar 03, 2020       ****
 **** executed: 2022-02-17  @  14:43:11.958  (GMT+01:00)       ****
 ******************************************************************

 ******************************************************************
 ****  ~~~~~~~~~~~~~~~~~~~~~~~~~~~~~~~~~~~~~~~~~~~~~~~~~~~~~~  ****
 ****  Please do cite `J. Mater. Chem.', 16, 1911-1918 (2006)  ****
 ****  ^^^^^^^^^^^^^^^^^^^^^^^^^^^^^^^^^^^^^^^^^^^^^^^^^^^^^^  ****
 ****  when publishing research data obtained using DL_POLY_4  ****
 ****  ^^^^^^^^^^^^^^^^^^^^^^^^^^^^^^^^^^^^^^^^^^^^^^^^^^^^^^  ****
 ******************************************************************


 I/O read method: parallel by using MPI-I/O (assumed)
 I/O readers (assumed)                   1
 I/O read batch size (assumed)     2000000
 I/O read buffer size (assumed)      20000
 I/O parallel read error checking off (assumed)

 I/O write method: parallel by using MPI-I/O (assumed)
 I/O write type: data sorting on (assumed)
 I/O writers (assumed)                   1
 I/O write batch size (assumed)    2000000
 I/O write buffer size (assumed)     20000
 I/O parallel write error checking off (assumed)

 *** warning - DD cutoff check: rcut=Max(rcut,rvdw,rmet,rkim,rcbnd,2.0_wp*rcter+1.0e-6_wp) ! ***

 warning issued     40

 *** warning - tentative cutoff reset to  10.000 Angstroms !!! ***



 node/domain decomposition (x,y,z):      1     1     1

 cutoffs driven limit on largest possible decomposition:     8 nodes/domains (2,2,2)

 cutoffs driven limit on largest balanced decomposition:     1 nodes/domains (1,1,1)

 link-cell decomposition 1 (x,y,z):      2     2     2

 warning issued    100

 *** warning - primary link cell algorithm has a link cell dimension that is < 3 !!! ***
 *** DL_POLY_4 RUNNING IN LOW EFFICIENCY MODE !!! ***


 *** pre-scanning stage (set_bounds) DONE ***

 time elapsed since job start:        0.020 sec

 **********************************************************************************************************************************
 **********************************************************************************************************************************
 **********************************************************************************************************************************
 ************************     nitrogen molecules cs07                                                      ************************
 **********************************************************************************************************************************
 **********************************************************************************************************************************
 **********************************************************************************************************************************


 SIMULATION CONTROL PARAMETERS

 simulation temperature (K)          3.0000E+02

 simulation pressure (katms)         4.9346E-01

 Integration : Velocity Verlet
 Ensemble : NVT Nose-Hoover
 thermostat relaxation time (ps)     2.0000E-01

 unscaled restart requested (starting a new simulation)

 selected number of timesteps        40000

 equilibration period (steps)            0

 data printing interval (steps)         10

 data stacking interval (steps)        100

 statistics file interval               10

 trajectory file option on
 trajectory file start                   0
 trajectory file interval               10
 trajectory file info key                1

 real space cutoff (Angs)            1.0000E+01

 vdw cutoff (Angs)                   1.0000E+01

 iterations for shake/rattle           250
 tolerance for shake/rattle (Angs)   1.0000E-09

 Electrostatics switched off!!!

 cutoff padding reset to (Angs)      2.3000E-01

 fixed simulation timestep (ps)      1.0000E-03

 data dumping interval (steps)        1000

 subcelling threshold density        5.0000E+01

 allocated job run time   (s)        7.0000E+05

 allocated job close time (s)        1.0000E+02


 SYSTEM SPECIFICATION

 energy units = Kelvin/Boltzmann


 number of molecular types               1


 molecular species type                  1

 name of species:             diatomic                                

 number of molecules                    64

 number of atoms/sites                   2

 atomic characteristics:

               site    name             mass         charge      repeat      freeze

                  1    N             14.006000       0.000000         1         0
                  2    N             14.006000       0.000000         1         0


 number of bond constraints              1

 constraint bond details:

                  unit     index     index       bondlength

                     1         1         2       1.090000


 number of chemical bonds                0

 chemical bond details:

                  unit     key     index     index                            parameters



 total number of molecules              64

 total number of sites                   2


 number of specified vdw potentials                1

       pair     atom 1  atom 2     key                              parameters

          1     N       N                                     tabulated

 potential tables read from TABLE file

 configuration file name: 

          Final configuration of cs07                                             


 selected image convention               2


 simulation cell vectors

       20.5000000000        0.0000000000        0.0000000000
        0.0000000000       20.5000000000        0.0000000000
        0.0000000000        0.0000000000       20.5000000000


 system volume            8615.12500000    

 *** all reading and connectivity checks DONE ***

 time elapsed since job start:        0.025 sec


 long-range correction for: vdw energy     0.000000E+00
                          : vdw pressure   0.000000E+00

 *** initialisation and haloing DONE ***

 time elapsed since job start:        0.026 sec

 //==============================================================\\
 ||                                                              ||
 ||           SUMMARY  OF  TOPOLOGICAL  DECOMPOSITION            ||
 ||                                                              ||
 ||--------------------------------------------------------------||
 ||  INTERACTION  OR  TYPE  |  GRAND TOTAL | Fully/Partly FROZEN ||
 ||-------------------------+--------------+---------------------||
 ||  all particles/sites    |         128  |  F            0     ||
 ||  free particles         |         128  |  F            0     ||
 ||  core-shell units       |           0  |  P            0     ||
 ||  constraint bond units  |          64  |  F            0     ||
 ||  PMF units              |           0  |  P         NONE     ||
 ||  rigid body units       |           0  |  F            0     ||
 ||  tethered atom units    |           0  |  F            0     ||
 ||  chemical bond units    |           0  |  F            0     ||
 ||  bond angle units       |           0  |  F            0     ||
 ||  dihedral angle units   |           0  |  F            0     ||
 ||  inversion angle units  |           0  |  F            0     ||
 \\==============================================================//


 *** bookkeeping DONE ***

 time elapsed since job start:        0.027 sec


 degrees of freedom break-down list
 ----------------------------------
 free particles                 384
 centre of mass                  -3
 non-periodicity                  0
 frozen free particles            0
 shell-pseudo                     0
 constrained                    -64
 RB translational                 0
 RB rotational                    0
 ----------------------------------
 total (real)                   317

 *** temperature setting DONE ***

 time elapsed since job start:        0.027 sec


 sample of starting configuration on node zero

        i       x(i)        y(i)        z(i)       vx(i)       vy(i)       vz(i)


        1  2.1197E+00 -2.9042E+00 -5.2668E-01  5.8448E+00  2.2245E+00 -2.7966E+00
        8  1.6719E+00 -9.1942E+00  9.0352E+00  1.8899E+00  9.2660E-01 -6.6513E-02
       15 -8.8999E+00 -5.2418E+00 -2.6272E+00  5.6510E-01 -2.2833E-01 -7.0156E-01
       22 -6.2738E+00  3.6515E+00  6.6362E+00  3.7284E+00  2.2253E+00 -5.1194E-01
       29  3.0969E+00 -1.0087E+01  1.1651E+00  1.3819E+00  4.1894E+00 -7.0935E-01
       36 -3.7814E+00  5.8811E+00 -6.5898E+00  1.0341E+00  6.7518E-02 -4.0564E+00
       43  8.6983E+00  3.6589E+00  1.0207E+01 -3.0660E+00 -4.2516E+00 -8.2039E-01
       50  5.9374E+00 -4.7429E-01  8.6696E+00 -3.4352E-01  2.9798E+00 -1.2759E+00
       57 -4.7844E+00 -3.7316E+00  5.9045E+00  8.0639E-01 -3.8430E+00 -3.8864E+00
       64  4.8610E+00  4.2699E+00  6.6267E+00  1.2327E+00 -6.3544E+00 -9.0157E-01
       71  4.8648E+00 -9.4814E+00 -4.8040E+00 -6.2267E+00  8.1137E+00  3.8785E+00
       78  8.9256E+00  4.3879E+00 -3.7186E+00  1.9528E+00 -2.6022E+00 -9.5669E-01
       85 -5.1487E-01  7.2203E+00 -7.1629E-01  1.3548E+00  3.2530E+00  2.0030E+00
       92 -4.8299E+00 -4.1583E+00  1.3572E+00  2.9032E+00  3.1532E+00 -5.4407E+00
       99  8.1189E+00 -3.4024E+00  2.4342E-01  7.0862E-01  5.0481E+00 -1.0134E+01
      106  3.0665E+00 -3.7280E+00  3.7518E+00 -6.3080E-01  1.7639E+00 -3.4348E-01
      113 -2.3843E+00 -4.4757E+00 -8.5903E+00  1.4842E+00  6.2526E-01  2.8585E-01
      120 -3.8467E+00 -5.2560E+00 -3.2873E+00 -5.3179E+00 -1.2417E+00  3.5785E+00
      127  1.4076E+00  3.4148E+00 -3.1666E+00  3.6363E+00  9.1449E+00 -4.3138E+00



 time elapsed since job start:        0.027 sec

 forces evaluated at (re)start for VV integration...

 ----------------------------------------------------------------------------------------------------------------------------------

          step     eng_tot    temp_tot     eng_cfg     eng_src     eng_cou     eng_bnd     eng_ang     eng_dih     eng_tet
      time(ps)      eng_pv    temp_rot     vir_cfg     vir_src     vir_cou     vir_bnd     vir_ang     vir_con     vir_tet
      cpu  (s)      volume    temp_shl     eng_shl     vir_shl       alpha        beta       gamma     vir_pmf       press

 ----------------------------------------------------------------------------------------------------------------------------------
             0 -4.3240E+03  3.1030E+02 -5.3507E+04 -5.3507E+04  0.0000E+00  0.0000E+00  0.0000E+00  0.0000E+00  0.0000E+00
       0.00000 -4.0491E+03  0.0000E+00  9.7541E+04  9.7541E+04  0.0000E+00  0.0000E+00  0.0000E+00  0.0000E+00  0.0000E+00
         0.029  8.6151E+03  0.0000E+00  0.0000E+00  0.0000E+00  9.0000E+01  9.0000E+01  9.0000E+01  0.0000E+00  4.3487E-03

       rolling  0.0000E+00  0.0000E+00  0.0000E+00  0.0000E+00  0.0000E+00  0.0000E+00  0.0000E+00  0.0000E+00  0.0000E+00
      averages  0.0000E+00  0.0000E+00  0.0000E+00  0.0000E+00  0.0000E+00  0.0000E+00  0.0000E+00  0.0000E+00  0.0000E+00
                0.0000E+00  0.0000E+00  0.0000E+00  0.0000E+00  0.0000E+00  0.0000E+00  0.0000E+00  0.0000E+00  0.0000E+00
 ----------------------------------------------------------------------------------------------------------------------------------

 ----------------------------------------------------------------------------------------------------------------------------------
 ----------------------------------------------------------------------------------------------------------------------------------

          step     eng_tot    temp_tot     eng_cfg     eng_src     eng_cou     eng_bnd     eng_ang     eng_dih     eng_tet
      time(ps)      eng_pv    temp_rot     vir_cfg     vir_src     vir_cou     vir_bnd     vir_ang     vir_con     vir_tet
      cpu  (s)      volume    temp_shl     eng_shl     vir_shl       alpha        beta       gamma     vir_pmf       press

 ----------------------------------------------------------------------------------------------------------------------------------
             1 -4.3241E+03  3.1076E+02 -5.3579E+04 -5.3579E+04  0.0000E+00  0.0000E+00  0.0000E+00  0.0000E+00  0.0000E+00
       0.00100 -1.1297E+04  0.0000E+00  1.1943E+05  9.8644E+04  0.0000E+00  0.0000E+00  0.0000E+00  2.0785E+04  0.0000E+00
         0.042  8.6151E+03  0.0000E+00  0.0000E+00  0.0000E+00  9.0000E+01  9.0000E+01  9.0000E+01  0.0000E+00 -1.1029E-01

       rolling -4.3241E+03  3.1076E+02 -5.3579E+04 -5.3579E+04  0.0000E+00  0.0000E+00  0.0000E+00  0.0000E+00  0.0000E+00
      averages -1.1297E+04  0.0000E+00  1.1943E+05  9.8644E+04  0.0000E+00  0.0000E+00  0.0000E+00  2.0785E+04  0.0000E+00
                8.6151E+03  0.0000E+00  0.0000E+00  0.0000E+00  9.0000E+01  9.0000E+01  9.0000E+01  0.0000E+00 -1.1029E-01
 ----------------------------------------------------------------------------------------------------------------------------------
            10 -4.3242E+03  3.1451E+02 -5.4179E+04 -5.4179E+04  0.0000E+00  0.0000E+00  0.0000E+00  0.0000E+00  0.0000E+00
       0.01000 -1.4763E+04  0.0000E+00  1.3100E+05  1.0782E+05  0.0000E+00  0.0000E+00  0.0000E+00  2.3187E+04  0.0000E+00
         0.046  8.6151E+03  0.0000E+00  0.0000E+00  0.0000E+00  9.0000E+01  9.0000E+01  9.0000E+01  0.0000E+00 -1.6503E-01

       rolling -4.3241E+03  3.1269E+02 -5.3888E+04 -5.3888E+04  0.0000E+00  0.0000E+00  0.0000E+00  0.0000E+00  0.0000E+00
      averages -1.3094E+04  0.0000E+00  1.2543E+05  1.0337E+05  0.0000E+00  0.0000E+00  0.0000E+00  2.2062E+04  0.0000E+00
                8.6151E+03  0.0000E+00  0.0000E+00  0.0000E+00  9.0000E+01  9.0000E+01  9.0000E+01  0.0000E+00 -1.3868E-01
 ----------------------------------------------------------------------------------------------------------------------------------
            20 -4.3242E+03  3.1741E+02 -5.4656E+04 -5.4656E+04  0.0000E+00  0.0000E+00  0.0000E+00  0.0000E+00  0.0000E+00
       0.02000 -1.7492E+04  0.0000E+00  1.4006E+05  1.1501E+05  0.0000E+00  0.0000E+00  0.0000E+00  2.5043E+04  0.0000E+00
         0.052  8.6151E+03  0.0000E+00  0.0000E+00  0.0000E+00  9.0000E+01  9.0000E+01  9.0000E+01  0.0000E+00 -2.0792E-01

       rolling -4.3241E+03  3.1446E+02 -5.4174E+04 -5.4174E+04  0.0000E+00  0.0000E+00  0.0000E+00  0.0000E+00  0.0000E+00
      averages -1.4734E+04  0.0000E+00  1.3089E+05  1.0772E+05  0.0000E+00  0.0000E+00  0.0000E+00  2.3170E+04  0.0000E+00
                8.6151E+03  0.0000E+00  0.0000E+00  0.0000E+00  9.0000E+01  9.0000E+01  9.0000E+01  0.0000E+00 -1.6453E-01
 ----------------------------------------------------------------------------------------------------------------------------------
            30 -4.3242E+03  3.1884E+02 -5.4913E+04 -5.4913E+04  0.0000E+00  0.0000E+00  0.0000E+00  0.0000E+00  0.0000E+00
       0.03000 -1.8896E+04  0.0000E+00  1.4463E+05  1.1848E+05  0.0000E+00  0.0000E+00  0.0000E+00  2.6141E+04  0.0000E+00
         0.057  8.6151E+03  0.0000E+00  0.0000E+00  0.0000E+00  9.0000E+01  9.0000E+01  9.0000E+01  0.0000E+00 -2.2963E-01

       rolling -4.3241E+03  3.1575E+02 -5.4388E+04 -5.4388E+04  0.0000E+00  0.0000E+00  0.0000E+00  0.0000E+00  0.0000E+00
      averages -1.5947E+04  0.0000E+00  1.3491E+05  1.1089E+05  0.0000E+00  0.0000E+00  0.0000E+00  2.4014E+04  0.0000E+00
                8.6151E+03  0.0000E+00  0.0000E+00  0.0000E+00  9.0000E+01  9.0000E+01  9.0000E+01  0.0000E+00 -1.8355E-01
 ----------------------------------------------------------------------------------------------------------------------------------
            40 -4.3243E+03  3.1855E+02 -5.4915E+04 -5.4915E+04  0.0000E+00  0.0000E+00  0.0000E+00  0.0000E+00  0.0000E+00
       0.04000 -1.8796E+04  0.0000E+00  1.4409E+05  1.1756E+05  0.0000E+00  0.0000E+00  0.0000E+00  2.6536E+04  0.0000E+00
         0.062  8.6151E+03  0.0000E+00  0.0000E+00  0.0000E+00  9.0000E+01  9.0000E+01  9.0000E+01  0.0000E+00 -2.2730E-01

       rolling -4.3242E+03  3.1652E+02 -5.4526E+04 -5.4526E+04  0.0000E+00  0.0000E+00  0.0000E+00  0.0000E+00  0.0000E+00
      averages -1.6707E+04  0.0000E+00  1.3739E+05  1.1277E+05  0.0000E+00  0.0000E+00  0.0000E+00  2.4617E+04  0.0000E+00
                8.6151E+03  0.0000E+00  0.0000E+00  0.0000E+00  9.0000E+01  9.0000E+01  9.0000E+01  0.0000E+00 -1.9534E-01
 ----------------------------------------------------------------------------------------------------------------------------------
            50 -4.3244E+03  3.1568E+02 -5.4523E+04 -5.4523E+04  0.0000E+00  0.0000E+00  0.0000E+00  0.0000E+00  0.0000E+00
       0.05000 -1.6520E+04  0.0000E+00  1.3617E+05  1.1041E+05  0.0000E+00  0.0000E+00  0.0000E+00  2.5756E+04  0.0000E+00
         0.065  8.6151E+03  0.0000E+00  0.0000E+00  0.0000E+00  9.0000E+01  9.0000E+01  9.0000E+01  0.0000E+00 -1.9030E-01

       rolling -4.3242E+03  3.1666E+02 -5.4568E+04 -5.4568E+04  0.0000E+00  0.0000E+00  0.0000E+00  0.0000E+00  0.0000E+00
      averages -1.6917E+04  0.0000E+00  1.3800E+05  1.1306E+05  0.0000E+00  0.0000E+00  0.0000E+00  2.4940E+04  0.0000E+00
                8.6151E+03  0.0000E+00  0.0000E+00  0.0000E+00  9.0000E+01  9.0000E+01  9.0000E+01  0.0000E+00 -1.9833E-01
 ----------------------------------------------------------------------------------------------------------------------------------
            60 -4.3244E+03  3.0962E+02 -5.3637E+04 -5.3637E+04  0.0000E+00  0.0000E+00  0.0000E+00  0.0000E+00  0.0000E+00
       0.06000 -1.1557E+04  0.0000E+00  1.1913E+05  9.5938E+04  0.0000E+00  0.0000E+00  0.0000E+00  2.3197E+04  0.0000E+00
         0.069  8.6151E+03  0.0000E+00  0.0000E+00  0.0000E+00  9.0000E+01  9.0000E+01  9.0000E+01  0.0000E+00 -1.1063E-01

       rolling -4.3243E+03  3.1599E+02 -5.4486E+04 -5.4486E+04  0.0000E+00  0.0000E+00  0.0000E+00  0.0000E+00  0.0000E+00
      averages -1.6432E+04  0.0000E+00  1.3626E+05  1.1139E+05  0.0000E+00  0.0000E+00  0.0000E+00  2.4868E+04  0.0000E+00
                8.6151E+03  0.0000E+00  0.0000E+00  0.0000E+00  9.0000E+01  9.0000E+01  9.0000E+01  0.0000E+00 -1.9027E-01
 ----------------------------------------------------------------------------------------------------------------------------------
            70 -4.3241E+03  3.0145E+02 -5.2423E+04 -5.2423E+04  0.0000E+00  0.0000E+00  0.0000E+00  0.0000E+00  0.0000E+00
       0.07000 -4.7368E+03  0.0000E+00  9.5845E+04  7.6725E+04  0.0000E+00  0.0000E+00  0.0000E+00  1.9120E+04  0.0000E+00
         0.073  8.6151E+03  0.0000E+00  0.0000E+00  0.0000E+00  9.0000E+01  9.0000E+01  9.0000E+01  0.0000E+00 -1.4980E-03

       rolling -4.3243E+03  3.1444E+02 -5.4271E+04 -5.4271E+04  0.0000E+00  0.0000E+00  0.0000E+00  0.0000E+00  0.0000E+00
      averages -1.5209E+04  0.0000E+00  1.3201E+05  1.0769E+05  0.0000E+00  0.0000E+00  0.0000E+00  2.4319E+04  0.0000E+00
                8.6151E+03  0.0000E+00  0.0000E+00  0.0000E+00  9.0000E+01  9.0000E+01  9.0000E+01  0.0000E+00 -1.7046E-01
 ----------------------------------------------------------------------------------------------------------------------------------
 ----------------------------------------------------------------------------------------------------------------------------------

          step     eng_tot    temp_tot     eng_cfg     eng_src     eng_cou     eng_bnd     eng_ang     eng_dih     eng_tet
      time(ps)      eng_pv    temp_rot     vir_cfg     vir_src     vir_cou     vir_bnd     vir_ang     vir_con     vir_tet
      cpu  (s)      volume    temp_shl     eng_shl     vir_shl       alpha        beta       gamma     vir_pmf       press

 ----------------------------------------------------------------------------------------------------------------------------------
            80 -4.3236E+03  2.9511E+02 -5.1496E+04 -5.1496E+04  0.0000E+00  0.0000E+00  0.0000E+00  0.0000E+00  0.0000E+00
       0.08000  7.6483E+02  0.0000E+00  7.7092E+04  6.1354E+04  0.0000E+00  0.0000E+00  0.0000E+00  1.5738E+04  0.0000E+00
         0.076  8.6151E+03  0.0000E+00  0.0000E+00  0.0000E+00  9.0000E+01  9.0000E+01  9.0000E+01  0.0000E+00  8.6767E-02

       rolling -4.3242E+03  3.1234E+02 -5.3968E+04 -5.3968E+04  0.0000E+00  0.0000E+00  0.0000E+00  0.0000E+00  0.0000E+00
      averages -1.3484E+04  0.0000E+00  1.2607E+05  1.0266E+05  0.0000E+00  0.0000E+00  0.0000E+00  2.3411E+04  0.0000E+00
                8.6151E+03  0.0000E+00  0.0000E+00  0.0000E+00  9.0000E+01  9.0000E+01  9.0000E+01  0.0000E+00 -1.4268E-01
 ----------------------------------------------------------------------------------------------------------------------------------
            90 -4.3237E+03  2.9525E+02 -5.1594E+04 -5.1594E+04  0.0000E+00  0.0000E+00  0.0000E+00  0.0000E+00  0.0000E+00
       0.09000  1.0584E+03  0.0000E+00  7.6030E+04  5.9753E+04  0.0000E+00  0.0000E+00  0.0000E+00  1.6277E+04  0.0000E+00
         0.080  8.6151E+03  0.0000E+00  0.0000E+00  0.0000E+00  9.0000E+01  9.0000E+01  9.0000E+01  0.0000E+00  9.2603E-02

       rolling -4.3241E+03  3.1036E+02 -5.3689E+04 -5.3689E+04  0.0000E+00  0.0000E+00  0.0000E+00  0.0000E+00  0.0000E+00
      averages -1.1828E+04  0.0000E+00  1.2038E+05  9.7831E+04  0.0000E+00  0.0000E+00  0.0000E+00  2.2548E+04  0.0000E+00
                8.6151E+03  0.0000E+00  0.0000E+00  0.0000E+00  9.0000E+01  9.0000E+01  9.0000E+01  0.0000E+00 -1.1596E-01
 ----------------------------------------------------------------------------------------------------------------------------------
           100 -4.3242E+03  3.0077E+02 -5.2542E+04 -5.2542E+04  0.0000E+00  0.0000E+00  0.0000E+00  0.0000E+00  0.0000E+00
       0.10000 -3.1125E+03  0.0000E+00  9.0074E+04  6.9817E+04  0.0000E+00  0.0000E+00  0.0000E+00  2.0257E+04  0.0000E+00
         0.084  8.6151E+03  0.0000E+00  0.0000E+00  0.0000E+00  9.0000E+01  9.0000E+01  9.0000E+01  0.0000E+00  2.7791E-02

       rolling -4.3241E+03  3.0913E+02 -5.3528E+04 -5.3528E+04  0.0000E+00  0.0000E+00  0.0000E+00  0.0000E+00  0.0000E+00
      averages -1.0748E+04  0.0000E+00  1.1665E+05  9.4523E+04  0.0000E+00  0.0000E+00  0.0000E+00  2.2126E+04  0.0000E+00
                8.6151E+03  0.0000E+00  0.0000E+00  0.0000E+00  9.0000E+01  9.0000E+01  9.0000E+01  0.0000E+00 -9.8344E-02
 ----------------------------------------------------------------------------------------------------------------------------------
           110 -4.3244E+03  3.0698E+02 -5.3601E+04 -5.3601E+04  0.0000E+00  0.0000E+00  0.0000E+00  0.0000E+00  0.0000E+00
       0.11000 -7.8757E+03  0.0000E+00  1.0610E+05  8.1730E+04  0.0000E+00  0.0000E+00  0.0000E+00  2.4375E+04  0.0000E+00
         0.087  8.6151E+03  0.0000E+00  0.0000E+00  0.0000E+00  9.0000E+01  9.0000E+01  9.0000E+01  0.0000E+00 -4.6358E-02

       rolling -4.3241E+03  3.0829E+02 -5.3453E+04 -5.3453E+04  0.0000E+00  0.0000E+00  0.0000E+00  0.0000E+00  0.0000E+00
      averages -1.0020E+04  0.0000E+00  1.1402E+05  9.1840E+04  0.0000E+00  0.0000E+00  0.0000E+00  2.2181E+04  0.0000E+00
                8.6151E+03  0.0000E+00  0.0000E+00  0.0000E+00  9.0000E+01  9.0000E+01  9.0000E+01  0.0000E+00 -8.5897E-02
 ----------------------------------------------------------------------------------------------------------------------------------
           120 -4.3244E+03  3.1127E+02 -5.4363E+04 -5.4363E+04  0.0000E+00  0.0000E+00  0.0000E+00  0.0000E+00  0.0000E+00
       0.12000 -1.1056E+04  0.0000E+00  1.1676E+05  8.9787E+04  0.0000E+00  0.0000E+00  0.0000E+00  2.6974E+04  0.0000E+00
         0.091  8.6151E+03  0.0000E+00  0.0000E+00  0.0000E+00  9.0000E+01  9.0000E+01  9.0000E+01  0.0000E+00 -9.5362E-02

       rolling -4.3242E+03  3.0762E+02 -5.3412E+04 -5.3412E+04  0.0000E+00  0.0000E+00  0.0000E+00  0.0000E+00  0.0000E+00
      averages -9.3617E+03  0.0000E+00  1.1164E+05  8.9291E+04  0.0000E+00  0.0000E+00  0.0000E+00  2.2348E+04  0.0000E+00
                8.6151E+03  0.0000E+00  0.0000E+00  0.0000E+00  9.0000E+01  9.0000E+01  9.0000E+01  0.0000E+00 -7.4457E-02
 ----------------------------------------------------------------------------------------------------------------------------------
           130 -4.3244E+03  3.1285E+02 -5.4705E+04 -5.4705E+04  0.0000E+00  0.0000E+00  0.0000E+00  0.0000E+00  0.0000E+00
       0.13000 -1.2025E+04  0.0000E+00  1.1990E+05  9.1994E+04  0.0000E+00  0.0000E+00  0.0000E+00  2.7901E+04  0.0000E+00
         0.095  8.6151E+03  0.0000E+00  0.0000E+00  0.0000E+00  9.0000E+01  9.0000E+01  9.0000E+01  0.0000E+00 -1.0925E-01

       rolling -4.3242E+03  3.0703E+02 -5.3389E+04 -5.3389E+04  0.0000E+00  0.0000E+00  0.0000E+00  0.0000E+00  0.0000E+00
      averages -8.7027E+03  0.0000E+00  1.0926E+05  8.6720E+04  0.0000E+00  0.0000E+00  0.0000E+00  2.2539E+04  0.0000E+00
                8.6151E+03  0.0000E+00  0.0000E+00  0.0000E+00  9.0000E+01  9.0000E+01  9.0000E+01  0.0000E+00 -6.2904E-02
 ----------------------------------------------------------------------------------------------------------------------------------
           140 -4.3244E+03  3.1145E+02 -5.4585E+04 -5.4585E+04  0.0000E+00  0.0000E+00  0.0000E+00  0.0000E+00  0.0000E+00
       0.14000 -1.0612E+04  0.0000E+00  1.1491E+05  8.7645E+04  0.0000E+00  0.0000E+00  0.0000E+00  2.7260E+04  0.0000E+00
         0.098  8.6151E+03  0.0000E+00  0.0000E+00  0.0000E+00  9.0000E+01  9.0000E+01  9.0000E+01  0.0000E+00 -8.5282E-02

       rolling -4.3242E+03  3.0638E+02 -5.3363E+04 -5.3363E+04  0.0000E+00  0.0000E+00  0.0000E+00  0.0000E+00  0.0000E+00
      averages -7.9482E+03  0.0000E+00  1.0656E+05  8.3894E+04  0.0000E+00  0.0000E+00  0.0000E+00  2.2664E+04  0.0000E+00
                8.6151E+03  0.0000E+00  0.0000E+00  0.0000E+00  9.0000E+01  9.0000E+01  9.0000E+01  0.0000E+00 -4.9751E-02
 ----------------------------------------------------------------------------------------------------------------------------------
           150 -4.3242E+03  3.0737E+02 -5.4049E+04 -5.4049E+04  0.0000E+00  0.0000E+00  0.0000E+00  0.0000E+00  0.0000E+00
       0.15000 -7.1004E+03  0.0000E+00  1.0275E+05  7.7503E+04  0.0000E+00  0.0000E+00  0.0000E+00  2.5245E+04  0.0000E+00
         0.102  8.6151E+03  0.0000E+00  0.0000E+00  0.0000E+00  9.0000E+01  9.0000E+01  9.0000E+01  0.0000E+00 -2.7995E-02

       rolling -4.3242E+03  3.0559E+02 -5.3321E+04 -5.3321E+04  0.0000E+00  0.0000E+00  0.0000E+00  0.0000E+00  0.0000E+00
      averages -7.0548E+03  0.0000E+00  1.0338E+05  8.0717E+04  0.0000E+00  0.0000E+00  0.0000E+00  2.2665E+04  0.0000E+00
                8.6151E+03  0.0000E+00  0.0000E+00  0.0000E+00  9.0000E+01  9.0000E+01  9.0000E+01  0.0000E+00 -3.4321E-02
 ----------------------------------------------------------------------------------------------------------------------------------
 ----------------------------------------------------------------------------------------------------------------------------------

          step     eng_tot    temp_tot     eng_cfg     eng_src     eng_cou     eng_bnd     eng_ang     eng_dih     eng_tet
      time(ps)      eng_pv    temp_rot     vir_cfg     vir_src     vir_cou     vir_bnd     vir_ang     vir_con     vir_tet
      cpu  (s)      volume    temp_shl     eng_shl     vir_shl       alpha        beta       gamma     vir_pmf       press

 ----------------------------------------------------------------------------------------------------------------------------------
           160 -4.3240E+03  3.0200E+02 -5.3312E+04 -5.3312E+04  0.0000E+00  0.0000E+00  0.0000E+00  0.0000E+00  0.0000E+00
       0.16000 -2.6092E+03  0.0000E+00  8.7229E+04  6.4698E+04  0.0000E+00  0.0000E+00  0.0000E+00  2.2531E+04  0.0000E+00
         0.106  8.6151E+03  0.0000E+00  0.0000E+00  0.0000E+00  9.0000E+01  9.0000E+01  9.0000E+01  0.0000E+00  4.4846E-02

       rolling -4.3241E+03  3.0478E+02 -5.3278E+04 -5.3278E+04  0.0000E+00  0.0000E+00  0.0000E+00  0.0000E+00  0.0000E+00
      averages -6.1182E+03  0.0000E+00  1.0005E+05  7.7463E+04  0.0000E+00  0.0000E+00  0.0000E+00  2.2591E+04  0.0000E+00
                8.6151E+03  0.0000E+00  0.0000E+00  0.0000E+00  9.0000E+01  9.0000E+01  9.0000E+01  0.0000E+00 -1.8138E-02
 ----------------------------------------------------------------------------------------------------------------------------------
           170 -4.3238E+03  2.9751E+02 -5.2714E+04 -5.2714E+04  0.0000E+00  0.0000E+00  0.0000E+00  0.0000E+00  0.0000E+00
       0.17000  1.0603E+03  0.0000E+00  7.4454E+04  5.4066E+04  0.0000E+00  0.0000E+00  0.0000E+00  2.0387E+04  0.0000E+00
         0.109  8.6151E+03  0.0000E+00  0.0000E+00  0.0000E+00  9.0000E+01  9.0000E+01  9.0000E+01  0.0000E+00  1.0469E-01

       rolling -4.3241E+03  3.0419E+02 -5.3276E+04 -5.3276E+04  0.0000E+00  0.0000E+00  0.0000E+00  0.0000E+00  0.0000E+00
      averages -5.3765E+03  0.0000E+00  9.7375E+04  7.4761E+04  0.0000E+00  0.0000E+00  0.0000E+00  2.2613E+04  0.0000E+00
                8.6151E+03  0.0000E+00  0.0000E+00  0.0000E+00  9.0000E+01  9.0000E+01  9.0000E+01  0.0000E+00 -4.9813E-03
 ----------------------------------------------------------------------------------------------------------------------------------
           180 -4.3239E+03  2.9538E+02 -5.2488E+04 -5.2488E+04  0.0000E+00  0.0000E+00  0.0000E+00  0.0000E+00  0.0000E+00
       0.18000  2.6181E+03  0.0000E+00  6.8772E+04  4.8907E+04  0.0000E+00  0.0000E+00  0.0000E+00  1.9865E+04  0.0000E+00
         0.113  8.6151E+03  0.0000E+00  0.0000E+00  0.0000E+00  9.0000E+01  9.0000E+01  9.0000E+01  0.0000E+00  1.3108E-01

       rolling -4.3241E+03  3.0405E+02 -5.3347E+04 -5.3347E+04  0.0000E+00  0.0000E+00  0.0000E+00  0.0000E+00  0.0000E+00
      averages -5.0247E+03  0.0000E+00  9.5993E+04  7.3090E+04  0.0000E+00  0.0000E+00  0.0000E+00  2.2903E+04  0.0000E+00
                8.6151E+03  0.0000E+00  0.0000E+00  0.0000E+00  9.0000E+01  9.0000E+01  9.0000E+01  0.0000E+00  2.0605E-03
 ----------------------------------------------------------------------------------------------------------------------------------
           190 -4.3240E+03  2.9531E+02 -5.2584E+04 -5.2584E+04  0.0000E+00  0.0000E+00  0.0000E+00  0.0000E+00  0.0000E+00
       0.19000  2.2341E+03  0.0000E+00  6.9580E+04  4.8719E+04  0.0000E+00  0.0000E+00  0.0000E+00  2.0861E+04  0.0000E+00
         0.117  8.6151E+03  0.0000E+00  0.0000E+00  0.0000E+00  9.0000E+01  9.0000E+01  9.0000E+01  0.0000E+00  1.2671E-01

       rolling -4.3241E+03  3.0411E+02 -5.3454E+04 -5.3454E+04  0.0000E+00  0.0000E+00  0.0000E+00  0.0000E+00  0.0000E+00
      averages -4.9138E+03  0.0000E+00  9.5391E+04  7.2020E+04  0.0000E+00  0.0000E+00  0.0000E+00  2.3371E+04  0.0000E+00
                8.6151E+03  0.0000E+00  0.0000E+00  0.0000E+00  9.0000E+01  9.0000E+01  9.0000E+01  0.0000E+00  5.3421E-03
 ----------------------------------------------------------------------------------------------------------------------------------
           200 -4.3242E+03  2.9605E+02 -5.2805E+04 -5.2805E+04  0.0000E+00  0.0000E+00  0.0000E+00  0.0000E+00  0.0000E+00
       0.20000  9.3844E+02  0.0000E+00  7.3388E+04  5.0890E+04  0.0000E+00  0.0000E+00  0.0000E+00  2.2499E+04  0.0000E+00
         0.120  8.6151E+03  0.0000E+00  0.0000E+00  0.0000E+00  9.0000E+01  9.0000E+01  9.0000E+01  0.0000E+00  1.0786E-01

       rolling -4.3242E+03  3.0388E+02 -5.3516E+04 -5.3516E+04  0.0000E+00  0.0000E+00  0.0000E+00  0.0000E+00  0.0000E+00
      averages -4.6554E+03  0.0000E+00  9.4241E+04  7.0528E+04  0.0000E+00  0.0000E+00  0.0000E+00  2.3713E+04  0.0000E+00
                8.6151E+03  0.0000E+00  0.0000E+00  0.0000E+00  9.0000E+01  9.0000E+01  9.0000E+01  0.0000E+00  1.1009E-02
 ----------------------------------------------------------------------------------------------------------------------------------
           210 -4.3243E+03  2.9652E+02 -5.2981E+04 -5.2981E+04  0.0000E+00  0.0000E+00  0.0000E+00  0.0000E+00  0.0000E+00
       0.21000 -3.2949E+02  0.0000E+00  7.7039E+04  5.3087E+04  0.0000E+00  0.0000E+00  0.0000E+00  2.3951E+04  0.0000E+00
         0.124  8.6151E+03  0.0000E+00  0.0000E+00  0.0000E+00  9.0000E+01  9.0000E+01  9.0000E+01  0.0000E+00  8.9406E-02

       rolling -4.3242E+03  3.0309E+02 -5.3493E+04 -5.3493E+04  0.0000E+00  0.0000E+00  0.0000E+00  0.0000E+00  0.0000E+00
      averages -4.0536E+03  0.0000E+00  9.1877E+04  6.8092E+04  0.0000E+00  0.0000E+00  0.0000E+00  2.3786E+04  0.0000E+00
                8.6151E+03  0.0000E+00  0.0000E+00  0.0000E+00  9.0000E+01  9.0000E+01  9.0000E+01  0.0000E+00  2.2149E-02
 ----------------------------------------------------------------------------------------------------------------------------------
           220 -4.3243E+03  2.9601E+02 -5.2999E+04 -5.2999E+04  0.0000E+00  0.0000E+00  0.0000E+00  0.0000E+00  0.0000E+00
       0.22000 -8.9530E+02  0.0000E+00  7.8281E+04  5.3772E+04  0.0000E+00  0.0000E+00  0.0000E+00  2.4510E+04  0.0000E+00
         0.128  8.6151E+03  0.0000E+00  0.0000E+00  0.0000E+00  9.0000E+01  9.0000E+01  9.0000E+01  0.0000E+00  8.2010E-02

       rolling -4.3241E+03  3.0177E+02 -5.3389E+04 -5.3389E+04  0.0000E+00  0.0000E+00  0.0000E+00  0.0000E+00  0.0000E+00
      averages -3.1462E+03  0.0000E+00  8.8422E+04  6.4795E+04  0.0000E+00  0.0000E+00  0.0000E+00  2.3627E+04  0.0000E+00
                8.6151E+03  0.0000E+00  0.0000E+00  0.0000E+00  9.0000E+01  9.0000E+01  9.0000E+01  0.0000E+00  3.8158E-02
 ----------------------------------------------------------------------------------------------------------------------------------
           230 -4.3241E+03  2.9475E+02 -5.2892E+04 -5.2892E+04  0.0000E+00  0.0000E+00  0.0000E+00  0.0000E+00  0.0000E+00
       0.23000 -6.9071E+02  0.0000E+00  7.6982E+04  5.3454E+04  0.0000E+00  0.0000E+00  0.0000E+00  2.3528E+04  0.0000E+00
         0.131  8.6151E+03  0.0000E+00  0.0000E+00  0.0000E+00  9.0000E+01  9.0000E+01  9.0000E+01  0.0000E+00  8.6740E-02

       rolling -4.3241E+03  3.0006E+02 -5.3224E+04 -5.3224E+04  0.0000E+00  0.0000E+00  0.0000E+00  0.0000E+00  0.0000E+00
      averages -2.0492E+03  0.0000E+00  8.4273E+04  6.0997E+04  0.0000E+00  0.0000E+00  0.0000E+00  2.3277E+04  0.0000E+00
                8.6151E+03  0.0000E+00  0.0000E+00  0.0000E+00  9.0000E+01  9.0000E+01  9.0000E+01  0.0000E+00  5.7181E-02
 ----------------------------------------------------------------------------------------------------------------------------------
 ----------------------------------------------------------------------------------------------------------------------------------

          step     eng_tot    temp_tot     eng_cfg     eng_src     eng_cou     eng_bnd     eng_ang     eng_dih     eng_tet
      time(ps)      eng_pv    temp_rot     vir_cfg     vir_src     vir_cou     vir_bnd     vir_ang     vir_con     vir_tet
      cpu  (s)      volume    temp_shl     eng_shl     vir_shl       alpha        beta       gamma     vir_pmf       press

 ----------------------------------------------------------------------------------------------------------------------------------
           240 -4.3239E+03  2.9494E+02 -5.3013E+04 -5.3013E+04  0.0000E+00  0.0000E+00  0.0000E+00  0.0000E+00  0.0000E+00
       0.24000 -1.1202E+03  0.0000E+00  7.8060E+04  5.6811E+04  0.0000E+00  0.0000E+00  0.0000E+00  2.1249E+04  0.0000E+00
         0.135  8.6151E+03  0.0000E+00  0.0000E+00  0.0000E+00  9.0000E+01  9.0000E+01  9.0000E+01  0.0000E+00  8.1374E-02

       rolling -4.3241E+03  2.9829E+02 -5.3048E+04 -5.3048E+04  0.0000E+00  0.0000E+00  0.0000E+00  0.0000E+00  0.0000E+00
      averages -9.8394E+02  0.0000E+00  8.0201E+04  5.7459E+04  0.0000E+00  0.0000E+00  0.0000E+00  2.2742E+04  0.0000E+00
                8.6151E+03  0.0000E+00  0.0000E+00  0.0000E+00  9.0000E+01  9.0000E+01  9.0000E+01  0.0000E+00  7.5692E-02
 ----------------------------------------------------------------------------------------------------------------------------------
           250 -4.3241E+03  2.9804E+02 -5.3592E+04 -5.3592E+04  0.0000E+00  0.0000E+00  0.0000E+00  0.0000E+00  0.0000E+00
       0.25000 -3.4515E+03  0.0000E+00  8.5776E+04  6.6713E+04  0.0000E+00  0.0000E+00  0.0000E+00  1.9063E+04  0.0000E+00
         0.139  8.6151E+03  0.0000E+00  0.0000E+00  0.0000E+00  9.0000E+01  9.0000E+01  9.0000E+01  0.0000E+00  4.5884E-02

       rolling -4.3240E+03  2.9700E+02 -5.2947E+04 -5.2947E+04  0.0000E+00  0.0000E+00  0.0000E+00  0.0000E+00  0.0000E+00
      averages -3.2824E+02  0.0000E+00  7.7514E+04  5.5398E+04  0.0000E+00  0.0000E+00  0.0000E+00  2.2116E+04  0.0000E+00
                8.6151E+03  0.0000E+00  0.0000E+00  0.0000E+00  9.0000E+01  9.0000E+01  9.0000E+01  0.0000E+00  8.7696E-02
 ----------------------------------------------------------------------------------------------------------------------------------
           260 -4.3243E+03  3.0161E+02 -5.4244E+04 -5.4244E+04  0.0000E+00  0.0000E+00  0.0000E+00  0.0000E+00  0.0000E+00
       0.26000 -6.3742E+03  0.0000E+00  9.5413E+04  7.7834E+04  0.0000E+00  0.0000E+00  0.0000E+00  1.7579E+04  0.0000E+00
         0.142  8.6151E+03  0.0000E+00  0.0000E+00  0.0000E+00  9.0000E+01  9.0000E+01  9.0000E+01  0.0000E+00  1.0320E-03

       rolling -4.3241E+03  2.9656E+02 -5.2979E+04 -5.2979E+04  0.0000E+00  0.0000E+00  0.0000E+00  0.0000E+00  0.0000E+00
      averages -3.7394E+02  0.0000E+00  7.7211E+04  5.5651E+04  0.0000E+00  0.0000E+00  0.0000E+00  2.1560E+04  0.0000E+00
                8.6151E+03  0.0000E+00  0.0000E+00  0.0000E+00  9.0000E+01  9.0000E+01  9.0000E+01  0.0000E+00  8.8566E-02
 ----------------------------------------------------------------------------------------------------------------------------------
           270 -4.3242E+03  3.0332E+02 -5.4604E+04 -5.4604E+04  0.0000E+00  0.0000E+00  0.0000E+00  0.0000E+00  0.0000E+00
       0.27000 -8.3236E+03  0.0000E+00  1.0154E+05  8.5058E+04  0.0000E+00  0.0000E+00  0.0000E+00  1.6480E+04  0.0000E+00
         0.146  8.6151E+03  0.0000E+00  0.0000E+00  0.0000E+00  9.0000E+01  9.0000E+01  9.0000E+01  0.0000E+00 -2.8399E-02

       rolling -4.3241E+03  2.9690E+02 -5.3130E+04 -5.3130E+04  0.0000E+00  0.0000E+00  0.0000E+00  0.0000E+00  0.0000E+00
      averages -1.0836E+03  0.0000E+00  7.9152E+04  5.8022E+04  0.0000E+00  0.0000E+00  0.0000E+00  2.1130E+04  0.0000E+00
                8.6151E+03  0.0000E+00  0.0000E+00  0.0000E+00  9.0000E+01  9.0000E+01  9.0000E+01  0.0000E+00  7.8893E-02
 ----------------------------------------------------------------------------------------------------------------------------------
           280 -4.3241E+03  3.0323E+02 -5.4681E+04 -5.4681E+04  0.0000E+00  0.0000E+00  0.0000E+00  0.0000E+00  0.0000E+00
       0.28000 -9.1967E+03  0.0000E+00  1.0386E+05  8.8238E+04  0.0000E+00  0.0000E+00  0.0000E+00  1.5617E+04  0.0000E+00
         0.150  8.6151E+03  0.0000E+00  0.0000E+00  0.0000E+00  9.0000E+01  9.0000E+01  9.0000E+01  0.0000E+00 -4.0765E-02

       rolling -4.3241E+03  2.9762E+02 -5.3341E+04 -5.3341E+04  0.0000E+00  0.0000E+00  0.0000E+00  0.0000E+00  0.0000E+00
      averages -2.1818E+03  0.0000E+00  8.2389E+04  6.1655E+04  0.0000E+00  0.0000E+00  0.0000E+00  2.0734E+04  0.0000E+00
                8.6151E+03  0.0000E+00  0.0000E+00  0.0000E+00  9.0000E+01  9.0000E+01  9.0000E+01  0.0000E+00  6.3039E-02
 ----------------------------------------------------------------------------------------------------------------------------------
           290 -4.3240E+03  3.0214E+02 -5.4601E+04 -5.4601E+04  0.0000E+00  0.0000E+00  0.0000E+00  0.0000E+00  0.0000E+00
       0.29000 -9.4312E+03  0.0000E+00  1.0393E+05  8.8994E+04  0.0000E+00  0.0000E+00  0.0000E+00  1.4938E+04  0.0000E+00
         0.154  8.6151E+03  0.0000E+00  0.0000E+00  0.0000E+00  9.0000E+01  9.0000E+01  9.0000E+01  0.0000E+00 -4.2993E-02

       rolling -4.3241E+03  2.9837E+02 -5.3553E+04 -5.3553E+04  0.0000E+00  0.0000E+00  0.0000E+00  0.0000E+00  0.0000E+00
      averages -3.3707E+03  0.0000E+00  8.5910E+04  6.5685E+04  0.0000E+00  0.0000E+00  0.0000E+00  2.0225E+04  0.0000E+00
                8.6151E+03  0.0000E+00  0.0000E+00  0.0000E+00  9.0000E+01  9.0000E+01  9.0000E+01  0.0000E+00  4.5724E-02
 ----------------------------------------------------------------------------------------------------------------------------------
           300 -4.3239E+03  3.0080E+02 -5.4485E+04 -5.4485E+04  0.0000E+00  0.0000E+00  0.0000E+00  0.0000E+00  0.0000E+00
       0.30000 -9.4746E+03  0.0000E+00  1.0335E+05  8.8959E+04  0.0000E+00  0.0000E+00  0.0000E+00  1.4395E+04  0.0000E+00
         0.157  8.6151E+03  0.0000E+00  0.0000E+00  0.0000E+00  9.0000E+01  9.0000E+01  9.0000E+01  0.0000E+00 -4.2177E-02

       rolling -4.3241E+03  2.9894E+02 -5.3736E+04 -5.3736E+04  0.0000E+00  0.0000E+00  0.0000E+00  0.0000E+00  0.0000E+00
      averages -4.4710E+03  0.0000E+00  8.9112E+04  6.9599E+04  0.0000E+00  0.0000E+00  0.0000E+00  1.9513E+04  0.0000E+00
                8.6151E+03  0.0000E+00  0.0000E+00  0.0000E+00  9.0000E+01  9.0000E+01  9.0000E+01  0.0000E+00  2.9792E-02
 ----------------------------------------------------------------------------------------------------------------------------------
           310 -4.3239E+03  2.9995E+02 -5.4444E+04 -5.4444E+04  0.0000E+00  0.0000E+00  0.0000E+00  0.0000E+00  0.0000E+00
       0.31000 -9.8037E+03  0.0000E+00  1.0378E+05  8.9680E+04  0.0000E+00  0.0000E+00  0.0000E+00  1.4104E+04  0.0000E+00
         0.161  8.6151E+03  0.0000E+00  0.0000E+00  0.0000E+00  9.0000E+01  9.0000E+01  9.0000E+01  0.0000E+00 -4.5876E-02

       rolling -4.3241E+03  2.9933E+02 -5.3890E+04 -5.3890E+04  0.0000E+00  0.0000E+00  0.0000E+00  0.0000E+00  0.0000E+00
      averages -5.4533E+03  0.0000E+00  9.1906E+04  7.3306E+04  0.0000E+00  0.0000E+00  0.0000E+00  1.8599E+04  0.0000E+00
                8.6151E+03  0.0000E+00  0.0000E+00  0.0000E+00  9.0000E+01  9.0000E+01  9.0000E+01  0.0000E+00  1.5716E-02
 ----------------------------------------------------------------------------------------------------------------------------------
 ----------------------------------------------------------------------------------------------------------------------------------

          step     eng_tot    temp_tot     eng_cfg     eng_src     eng_cou     eng_bnd     eng_ang     eng_dih     eng_tet
      time(ps)      eng_pv    temp_rot     vir_cfg     vir_src     vir_cou     vir_bnd     vir_ang     vir_con     vir_tet
      cpu  (s)      volume    temp_shl     eng_shl     vir_shl       alpha        beta       gamma     vir_pmf       press

 ----------------------------------------------------------------------------------------------------------------------------------
           320 -4.3239E+03  2.9991E+02 -5.4534E+04 -5.4534E+04  0.0000E+00  0.0000E+00  0.0000E+00  0.0000E+00  0.0000E+00
       0.32000 -1.0660E+04  0.0000E+00  1.0606E+05  9.1842E+04  0.0000E+00  0.0000E+00  0.0000E+00  1.4214E+04  0.0000E+00
         0.165  8.6151E+03  0.0000E+00  0.0000E+00  0.0000E+00  9.0000E+01  9.0000E+01  9.0000E+01  0.0000E+00 -5.7919E-02

       rolling -4.3241E+03  2.9968E+02 -5.4038E+04 -5.4038E+04  0.0000E+00  0.0000E+00  0.0000E+00  0.0000E+00  0.0000E+00
      averages -6.4051E+03  0.0000E+00  9.4597E+04  7.7021E+04  0.0000E+00  0.0000E+00  0.0000E+00  1.7576E+04  0.0000E+00
                8.6151E+03  0.0000E+00  0.0000E+00  0.0000E+00  9.0000E+01  9.0000E+01  9.0000E+01  0.0000E+00  2.1150E-03
 ----------------------------------------------------------------------------------------------------------------------------------
           330 -4.3240E+03  3.0022E+02 -5.4678E+04 -5.4678E+04  0.0000E+00  0.0000E+00  0.0000E+00  0.0000E+00  0.0000E+00
       0.33000 -1.1689E+04  0.0000E+00  1.0895E+05  9.4386E+04  0.0000E+00  0.0000E+00  0.0000E+00  1.4568E+04  0.0000E+00
         0.169  8.6151E+03  0.0000E+00  0.0000E+00  0.0000E+00  9.0000E+01  9.0000E+01  9.0000E+01  0.0000E+00 -7.2673E-02

       rolling -4.3240E+03  3.0016E+02 -5.4206E+04 -5.4206E+04  0.0000E+00  0.0000E+00  0.0000E+00  0.0000E+00  0.0000E+00
      averages -7.4482E+03  0.0000E+00  9.7602E+04  8.0996E+04  0.0000E+00  0.0000E+00  0.0000E+00  1.6606E+04  0.0000E+00
                8.6151E+03  0.0000E+00  0.0000E+00  0.0000E+00  9.0000E+01  9.0000E+01  9.0000E+01  0.0000E+00 -1.2930E-02
 ----------------------------------------------------------------------------------------------------------------------------------
           340 -4.3242E+03  2.9984E+02 -5.4714E+04 -5.4714E+04  0.0000E+00  0.0000E+00  0.0000E+00  0.0000E+00  0.0000E+00
       0.34000 -1.2076E+04  0.0000E+00  1.0971E+05  9.5023E+04  0.0000E+00  0.0000E+00  0.0000E+00  1.4688E+04  0.0000E+00
         0.172  8.6151E+03  0.0000E+00  0.0000E+00  0.0000E+00  9.0000E+01  9.0000E+01  9.0000E+01  0.0000E+00 -7.7297E-02

       rolling -4.3241E+03  3.0071E+02 -5.4385E+04 -5.4385E+04  0.0000E+00  0.0000E+00  0.0000E+00  0.0000E+00  0.0000E+00
      averages -8.5681E+03  0.0000E+00  1.0086E+05  8.5019E+04  0.0000E+00  0.0000E+00  0.0000E+00  1.5841E+04  0.0000E+00
                8.6151E+03  0.0000E+00  0.0000E+00  0.0000E+00  9.0000E+01  9.0000E+01  9.0000E+01  0.0000E+00 -2.9186E-02
 ----------------------------------------------------------------------------------------------------------------------------------
           350 -4.3242E+03  2.9781E+02 -5.4487E+04 -5.4487E+04  0.0000E+00  0.0000E+00  0.0000E+00  0.0000E+00  0.0000E+00
       0.35000 -1.1049E+04  0.0000E+00  1.0570E+05  9.1645E+04  0.0000E+00  0.0000E+00  0.0000E+00  1.4056E+04  0.0000E+00
         0.176  8.6151E+03  0.0000E+00  0.0000E+00  0.0000E+00  9.0000E+01  9.0000E+01  9.0000E+01  0.0000E+00 -5.9550E-02

       rolling -4.3241E+03  3.0095E+02 -5.4516E+04 -5.4516E+04  0.0000E+00  0.0000E+00  0.0000E+00  0.0000E+00  0.0000E+00
      averages -9.5069E+03  0.0000E+00  1.0347E+05  8.8191E+04  0.0000E+00  0.0000E+00  0.0000E+00  1.5284E+04  0.0000E+00
                8.6151E+03  0.0000E+00  0.0000E+00  0.0000E+00  9.0000E+01  9.0000E+01  9.0000E+01  0.0000E+00 -4.2566E-02
 ----------------------------------------------------------------------------------------------------------------------------------
           360 -4.3243E+03  2.9353E+02 -5.3901E+04 -5.3901E+04  0.0000E+00  0.0000E+00  0.0000E+00  0.0000E+00  0.0000E+00
       0.36000 -8.1372E+03  0.0000E+00  9.5332E+04  8.3064E+04  0.0000E+00  0.0000E+00  0.0000E+00  1.2268E+04  0.0000E+00
         0.180  8.6151E+03  0.0000E+00  0.0000E+00  0.0000E+00  9.0000E+01  9.0000E+01  9.0000E+01  0.0000E+00 -1.2037E-02

       rolling -4.3241E+03  3.0050E+02 -5.4539E+04 -5.4539E+04  0.0000E+00  0.0000E+00  0.0000E+00  0.0000E+00  0.0000E+00
      averages -9.9583E+03  0.0000E+00  1.0441E+05  8.9626E+04  0.0000E+00  0.0000E+00  0.0000E+00  1.4782E+04  0.0000E+00
                8.6151E+03  0.0000E+00  0.0000E+00  0.0000E+00  9.0000E+01  9.0000E+01  9.0000E+01  0.0000E+00 -4.8226E-02
 ----------------------------------------------------------------------------------------------------------------------------------
           370 -4.3241E+03  2.8718E+02 -5.2979E+04 -5.2979E+04  0.0000E+00  0.0000E+00  0.0000E+00  0.0000E+00  0.0000E+00
       0.37000 -3.4792E+03  0.0000E+00  7.9090E+04  6.9876E+04  0.0000E+00  0.0000E+00  0.0000E+00  9.2141E+03  0.0000E+00
         0.183  8.6151E+03  0.0000E+00  0.0000E+00  0.0000E+00  9.0000E+01  9.0000E+01  9.0000E+01  0.0000E+00  6.2979E-02

       rolling -4.3241E+03  2.9925E+02 -5.4434E+04 -5.4434E+04  0.0000E+00  0.0000E+00  0.0000E+00  0.0000E+00  0.0000E+00
      averages -9.7717E+03  0.0000E+00  1.0317E+05  8.9015E+04  0.0000E+00  0.0000E+00  0.0000E+00  1.4154E+04  0.0000E+00
                8.6151E+03  0.0000E+00  0.0000E+00  0.0000E+00  9.0000E+01  9.0000E+01  9.0000E+01  0.0000E+00 -4.3796E-02
 ----------------------------------------------------------------------------------------------------------------------------------
           380 -4.3237E+03  2.8085E+02 -5.2049E+04 -5.2049E+04  0.0000E+00  0.0000E+00  0.0000E+00  0.0000E+00  0.0000E+00
       0.38000  1.2559E+03  0.0000E+00  6.2658E+04  5.6765E+04  0.0000E+00  0.0000E+00  0.0000E+00  5.8930E+03  0.0000E+00
         0.187  8.6151E+03  0.0000E+00  0.0000E+00  0.0000E+00  9.0000E+01  9.0000E+01  9.0000E+01  0.0000E+00  1.3903E-01

       rolling -4.3240E+03  2.9726E+02 -5.4212E+04 -5.4212E+04  0.0000E+00  0.0000E+00  0.0000E+00  0.0000E+00  0.0000E+00
      averages -8.9600E+03  0.0000E+00  9.9827E+04  8.6540E+04  0.0000E+00  0.0000E+00  0.0000E+00  1.3288E+04  0.0000E+00
                8.6151E+03  0.0000E+00  0.0000E+00  0.0000E+00  9.0000E+01  9.0000E+01  9.0000E+01  0.0000E+00 -2.9494E-02
 ----------------------------------------------------------------------------------------------------------------------------------
           390 -4.3236E+03  2.7822E+02 -5.1691E+04 -5.1691E+04  0.0000E+00  0.0000E+00  0.0000E+00  0.0000E+00  0.0000E+00
       0.39000  3.0518E+03  0.0000E+00  5.6262E+04  5.1583E+04  0.0000E+00  0.0000E+00  0.0000E+00  4.6795E+03  0.0000E+00
         0.191  8.6151E+03  0.0000E+00  0.0000E+00  0.0000E+00  9.0000E+01  9.0000E+01  9.0000E+01  0.0000E+00  1.6836E-01

       rolling -4.3240E+03  2.9490E+02 -5.3926E+04 -5.3926E+04  0.0000E+00  0.0000E+00  0.0000E+00  0.0000E+00  0.0000E+00
      averages -7.7658E+03  0.0000E+00  9.5225E+04  8.2964E+04  0.0000E+00  0.0000E+00  0.0000E+00  1.2261E+04  0.0000E+00
                8.6151E+03  0.0000E+00  0.0000E+00  0.0000E+00  9.0000E+01  9.0000E+01  9.0000E+01  0.0000E+00 -9.1876E-03
 ----------------------------------------------------------------------------------------------------------------------------------
 ----------------------------------------------------------------------------------------------------------------------------------

          step     eng_tot    temp_tot     eng_cfg     eng_src     eng_cou     eng_bnd     eng_ang     eng_dih     eng_tet
      time(ps)      eng_pv    temp_rot     vir_cfg     vir_src     vir_cou     vir_bnd     vir_ang     vir_con     vir_tet
      cpu  (s)      volume    temp_shl     eng_shl     vir_shl       alpha        beta       gamma     vir_pmf       press

 ----------------------------------------------------------------------------------------------------------------------------------
           400 -4.3240E+03  2.8002E+02 -5.2019E+04 -5.2019E+04  0.0000E+00  0.0000E+00  0.0000E+00  0.0000E+00  0.0000E+00
       0.40000  1.1883E+03  0.0000E+00  6.2295E+04  5.5939E+04  0.0000E+00  0.0000E+00  0.0000E+00  6.3566E+03  0.0000E+00
         0.194  8.6151E+03  0.0000E+00  0.0000E+00  0.0000E+00  9.0000E+01  9.0000E+01  9.0000E+01  0.0000E+00  1.3956E-01

       rolling -4.3240E+03  2.9265E+02 -5.3655E+04 -5.3655E+04  0.0000E+00  0.0000E+00  0.0000E+00  0.0000E+00  0.0000E+00
      averages -6.5957E+03  0.0000E+00  9.0747E+04  7.9406E+04  0.0000E+00  0.0000E+00  0.0000E+00  1.1341E+04  0.0000E+00
                8.6151E+03  0.0000E+00  0.0000E+00  0.0000E+00  9.0000E+01  9.0000E+01  9.0000E+01  0.0000E+00  1.0666E-02
 ----------------------------------------------------------------------------------------------------------------------------------
           410 -4.3242E+03  2.8325E+02 -5.2559E+04 -5.2559E+04  0.0000E+00  0.0000E+00  0.0000E+00  0.0000E+00  0.0000E+00
       0.41000 -1.9218E+03  0.0000E+00  7.2563E+04  6.3630E+04  0.0000E+00  0.0000E+00  0.0000E+00  8.9324E+03  0.0000E+00
         0.198  8.6151E+03  0.0000E+00  0.0000E+00  0.0000E+00  9.0000E+01  9.0000E+01  9.0000E+01  0.0000E+00  9.0825E-02

       rolling -4.3240E+03  2.9081E+02 -5.3442E+04 -5.3442E+04  0.0000E+00  0.0000E+00  0.0000E+00  0.0000E+00  0.0000E+00
      averages -5.6870E+03  0.0000E+00  8.7198E+04  7.6499E+04  0.0000E+00  0.0000E+00  0.0000E+00  1.0700E+04  0.0000E+00
                8.6151E+03  0.0000E+00  0.0000E+00  0.0000E+00  9.0000E+01  9.0000E+01  9.0000E+01  0.0000E+00  2.6292E-02
 ----------------------------------------------------------------------------------------------------------------------------------
           420 -4.3242E+03  2.8553E+02 -5.2937E+04 -5.2937E+04  0.0000E+00  0.0000E+00  0.0000E+00  0.0000E+00  0.0000E+00
       0.42000 -4.2859E+03  0.0000E+00  8.0330E+04  6.9604E+04  0.0000E+00  0.0000E+00  0.0000E+00  1.0726E+04  0.0000E+00
         0.202  8.6151E+03  0.0000E+00  0.0000E+00  0.0000E+00  9.0000E+01  9.0000E+01  9.0000E+01  0.0000E+00  5.3686E-02

       rolling -4.3240E+03  2.8928E+02 -5.3272E+04 -5.3272E+04  0.0000E+00  0.0000E+00  0.0000E+00  0.0000E+00  0.0000E+00
      averages -4.9955E+03  0.0000E+00  8.4425E+04  7.4138E+04  0.0000E+00  0.0000E+00  0.0000E+00  1.0288E+04  0.0000E+00
                8.6151E+03  0.0000E+00  0.0000E+00  0.0000E+00  9.0000E+01  9.0000E+01  9.0000E+01  0.0000E+00  3.8366E-02
 ----------------------------------------------------------------------------------------------------------------------------------
           430 -4.3241E+03  2.8636E+02 -5.3074E+04 -5.3074E+04  0.0000E+00  0.0000E+00  0.0000E+00  0.0000E+00  0.0000E+00
       0.43000 -5.4579E+03  0.0000E+00  8.4096E+04  7.2651E+04  0.0000E+00  0.0000E+00  0.0000E+00  1.1445E+04  0.0000E+00
         0.206  8.6151E+03  0.0000E+00  0.0000E+00  0.0000E+00  9.0000E+01  9.0000E+01  9.0000E+01  0.0000E+00  3.5226E-02

       rolling -4.3240E+03  2.8788E+02 -5.3114E+04 -5.3114E+04  0.0000E+00  0.0000E+00  0.0000E+00  0.0000E+00  0.0000E+00
      averages -4.3732E+03  0.0000E+00  8.1925E+04  7.1958E+04  0.0000E+00  0.0000E+00  0.0000E+00  9.9668E+03  0.0000E+00
                8.6151E+03  0.0000E+00  0.0000E+00  0.0000E+00  9.0000E+01  9.0000E+01  9.0000E+01  0.0000E+00  4.9210E-02
 ----------------------------------------------------------------------------------------------------------------------------------
           440 -4.3240E+03  2.8630E+02 -5.3059E+04 -5.3059E+04  0.0000E+00  0.0000E+00  0.0000E+00  0.0000E+00  0.0000E+00
       0.44000 -5.8781E+03  0.0000E+00  8.5354E+04  7.3804E+04  0.0000E+00  0.0000E+00  0.0000E+00  1.1549E+04  0.0000E+00
         0.209  8.6151E+03  0.0000E+00  0.0000E+00  0.0000E+00  9.0000E+01  9.0000E+01  9.0000E+01  0.0000E+00  2.8492E-02

       rolling -4.3240E+03  2.8651E+02 -5.2950E+04 -5.2950E+04  0.0000E+00  0.0000E+00  0.0000E+00  0.0000E+00  0.0000E+00
      averages -3.7463E+03  0.0000E+00  7.9448E+04  6.9796E+04  0.0000E+00  0.0000E+00  0.0000E+00  9.6518E+03  0.0000E+00
                8.6151E+03  0.0000E+00  0.0000E+00  0.0000E+00  9.0000E+01  9.0000E+01  9.0000E+01  0.0000E+00  5.9973E-02
 ----------------------------------------------------------------------------------------------------------------------------------
           450 -4.3239E+03  2.8624E+02 -5.3033E+04 -5.3033E+04  0.0000E+00  0.0000E+00  0.0000E+00  0.0000E+00  0.0000E+00
       0.45000 -6.2740E+03  0.0000E+00  8.6569E+04  7.4927E+04  0.0000E+00  0.0000E+00  0.0000E+00  1.1642E+04  0.0000E+00
         0.213  8.6151E+03  0.0000E+00  0.0000E+00  0.0000E+00  9.0000E+01  9.0000E+01  9.0000E+01  0.0000E+00  2.1982E-02

       rolling -4.3240E+03  2.8524E+02 -5.2792E+04 -5.2792E+04  0.0000E+00  0.0000E+00  0.0000E+00  0.0000E+00  0.0000E+00
      averages -3.1880E+03  0.0000E+00  7.7242E+04  6.7875E+04  0.0000E+00  0.0000E+00  0.0000E+00  9.3679E+03  0.0000E+00
                8.6151E+03  0.0000E+00  0.0000E+00  0.0000E+00  9.0000E+01  9.0000E+01  9.0000E+01  0.0000E+00  6.9483E-02
 ----------------------------------------------------------------------------------------------------------------------------------
           460 -4.3239E+03  2.8690E+02 -5.3111E+04 -5.3111E+04  0.0000E+00  0.0000E+00  0.0000E+00  0.0000E+00  0.0000E+00
       0.46000 -7.2079E+03  0.0000E+00  8.9658E+04  7.7568E+04  0.0000E+00  0.0000E+00  0.0000E+00  1.2090E+04  0.0000E+00
         0.217  8.6151E+03  0.0000E+00  0.0000E+00  0.0000E+00  9.0000E+01  9.0000E+01  9.0000E+01  0.0000E+00  6.7971E-03

       rolling -4.3240E+03  2.8433E+02 -5.2679E+04 -5.2679E+04  0.0000E+00  0.0000E+00  0.0000E+00  0.0000E+00  0.0000E+00
      averages -2.8996E+03  0.0000E+00  7.5993E+04  6.6758E+04  0.0000E+00  0.0000E+00  0.0000E+00  9.2349E+03  0.0000E+00
                8.6151E+03  0.0000E+00  0.0000E+00  0.0000E+00  9.0000E+01  9.0000E+01  9.0000E+01  0.0000E+00  7.4544E-02
 ----------------------------------------------------------------------------------------------------------------------------------
           470 -4.3239E+03  2.8865E+02 -5.3353E+04 -5.3353E+04  0.0000E+00  0.0000E+00  0.0000E+00  0.0000E+00  0.0000E+00
       0.47000 -8.9590E+03  0.0000E+00  9.5576E+04  8.2527E+04  0.0000E+00  0.0000E+00  0.0000E+00  1.3049E+04  0.0000E+00
         0.221  8.6151E+03  0.0000E+00  0.0000E+00  0.0000E+00  9.0000E+01  9.0000E+01  9.0000E+01  0.0000E+00 -2.1471E-02

       rolling -4.3239E+03  2.8409E+02 -5.2660E+04 -5.2660E+04  0.0000E+00  0.0000E+00  0.0000E+00  0.0000E+00  0.0000E+00
      averages -3.1414E+03  0.0000E+00  7.6585E+04  6.7160E+04  0.0000E+00  0.0000E+00  0.0000E+00  9.4244E+03  0.0000E+00
                8.6151E+03  0.0000E+00  0.0000E+00  0.0000E+00  9.0000E+01  9.0000E+01  9.0000E+01  0.0000E+00  7.1027E-02
 ----------------------------------------------------------------------------------------------------------------------------------
 ----------------------------------------------------------------------------------------------------------------------------------

          step     eng_tot    temp_tot     eng_cfg     eng_src     eng_cou     eng_bnd     eng_ang     eng_dih     eng_tet
      time(ps)      eng_pv    temp_rot     vir_cfg     vir_src     vir_cou     vir_bnd     vir_ang     vir_con     vir_tet
      cpu  (s)      volume    temp_shl     eng_shl     vir_shl       alpha        beta       gamma     vir_pmf       press

 ----------------------------------------------------------------------------------------------------------------------------------
           480 -4.3240E+03  2.9134E+02 -5.3734E+04 -5.3734E+04  0.0000E+00  0.0000E+00  0.0000E+00  0.0000E+00  0.0000E+00
       0.48000 -1.1414E+04  0.0000E+00  1.0393E+05  8.9423E+04  0.0000E+00  0.0000E+00  0.0000E+00  1.4506E+04  0.0000E+00
         0.224  8.6151E+03  0.0000E+00  0.0000E+00  0.0000E+00  9.0000E+01  9.0000E+01  9.0000E+01  0.0000E+00 -6.1017E-02

       rolling -4.3239E+03  2.8474E+02 -5.2772E+04 -5.2772E+04  0.0000E+00  0.0000E+00  0.0000E+00  0.0000E+00  0.0000E+00
      averages -4.0926E+03  0.0000E+00  7.9623E+04  6.9549E+04  0.0000E+00  0.0000E+00  0.0000E+00  1.0074E+04  0.0000E+00
                8.6151E+03  0.0000E+00  0.0000E+00  0.0000E+00  9.0000E+01  9.0000E+01  9.0000E+01  0.0000E+00  5.6101E-02
 ----------------------------------------------------------------------------------------------------------------------------------
           490 -4.3241E+03  2.9414E+02 -5.4126E+04 -5.4126E+04  0.0000E+00  0.0000E+00  0.0000E+00  0.0000E+00  0.0000E+00
       0.49000 -1.3949E+04  0.0000E+00  1.1258E+05  9.6432E+04  0.0000E+00  0.0000E+00  0.0000E+00  1.6146E+04  0.0000E+00
         0.228  8.6151E+03  0.0000E+00  0.0000E+00  0.0000E+00  9.0000E+01  9.0000E+01  9.0000E+01  0.0000E+00 -1.0193E-01

       rolling -4.3240E+03  2.8614E+02 -5.2989E+04 -5.2989E+04  0.0000E+00  0.0000E+00  0.0000E+00  0.0000E+00  0.0000E+00
      averages -5.6346E+03  0.0000E+00  8.4702E+04  7.3583E+04  0.0000E+00  0.0000E+00  0.0000E+00  1.1119E+04  0.0000E+00
                8.6151E+03  0.0000E+00  0.0000E+00  0.0000E+00  9.0000E+01  9.0000E+01  9.0000E+01  0.0000E+00  3.1651E-02
 ----------------------------------------------------------------------------------------------------------------------------------
           500 -4.3241E+03  2.9599E+02 -5.4362E+04 -5.4362E+04  0.0000E+00  0.0000E+00  0.0000E+00  0.0000E+00  0.0000E+00
       0.50000 -1.5734E+04  0.0000E+00  1.1869E+05  1.0124E+05  0.0000E+00  0.0000E+00  0.0000E+00  1.7447E+04  0.0000E+00
         0.231  8.6151E+03  0.0000E+00  0.0000E+00  0.0000E+00  9.0000E+01  9.0000E+01  9.0000E+01  0.0000E+00 -1.3106E-01

       rolling -4.3240E+03  2.8777E+02 -5.3233E+04 -5.3233E+04  0.0000E+00  0.0000E+00  0.0000E+00  0.0000E+00  0.0000E+00
      averages -7.3616E+03  0.0000E+00  9.0444E+04  7.8177E+04  0.0000E+00  0.0000E+00  0.0000E+00  1.2267E+04  0.0000E+00
                8.6151E+03  0.0000E+00  0.0000E+00  0.0000E+00  9.0000E+01  9.0000E+01  9.0000E+01  0.0000E+00  4.1078E-03
 ----------------------------------------------------------------------------------------------------------------------------------
           510 -4.3241E+03  2.9638E+02 -5.4364E+04 -5.4364E+04  0.0000E+00  0.0000E+00  0.0000E+00  0.0000E+00  0.0000E+00
       0.51000 -1.6360E+04  0.0000E+00  1.2087E+05  1.0279E+05  0.0000E+00  0.0000E+00  0.0000E+00  1.8082E+04  0.0000E+00
         0.235  8.6151E+03  0.0000E+00  0.0000E+00  0.0000E+00  9.0000E+01  9.0000E+01  9.0000E+01  0.0000E+00 -1.4192E-01

       rolling -4.3240E+03  2.8922E+02 -5.3439E+04 -5.3439E+04  0.0000E+00  0.0000E+00  0.0000E+00  0.0000E+00  0.0000E+00
      averages -8.9257E+03  0.0000E+00  9.5668E+04  8.2394E+04  0.0000E+00  0.0000E+00  0.0000E+00  1.3273E+04  0.0000E+00
                8.6151E+03  0.0000E+00  0.0000E+00  0.0000E+00  9.0000E+01  9.0000E+01  9.0000E+01  0.0000E+00 -2.1008E-02
 ----------------------------------------------------------------------------------------------------------------------------------
           520 -4.3239E+03  2.9599E+02 -5.4237E+04 -5.4237E+04  0.0000E+00  0.0000E+00  0.0000E+00  0.0000E+00  0.0000E+00
       0.52000 -1.6306E+04  0.0000E+00  1.2078E+05  1.0247E+05  0.0000E+00  0.0000E+00  0.0000E+00  1.8306E+04  0.0000E+00
         0.239  8.6151E+03  0.0000E+00  0.0000E+00  0.0000E+00  9.0000E+01  9.0000E+01  9.0000E+01  0.0000E+00 -1.4208E-01

       rolling -4.3240E+03  2.9038E+02 -5.3590E+04 -5.3590E+04  0.0000E+00  0.0000E+00  0.0000E+00  0.0000E+00  0.0000E+00
      averages -1.0228E+04  0.0000E+00  1.0004E+05  8.5944E+04  0.0000E+00  0.0000E+00  0.0000E+00  1.4093E+04  0.0000E+00
                8.6151E+03  0.0000E+00  0.0000E+00  0.0000E+00  9.0000E+01  9.0000E+01  9.0000E+01  0.0000E+00 -4.2113E-02
 ----------------------------------------------------------------------------------------------------------------------------------
           530 -4.3238E+03  2.9632E+02 -5.4224E+04 -5.4224E+04  0.0000E+00  0.0000E+00  0.0000E+00  0.0000E+00  0.0000E+00
       0.53000 -1.6742E+04  0.0000E+00  1.2239E+05  1.0346E+05  0.0000E+00  0.0000E+00  0.0000E+00  1.8933E+04  0.0000E+00
         0.242  8.6151E+03  0.0000E+00  0.0000E+00  0.0000E+00  9.0000E+01  9.0000E+01  9.0000E+01  0.0000E+00 -1.5003E-01

       rolling -4.3240E+03  2.9137E+02 -5.3708E+04 -5.3708E+04  0.0000E+00  0.0000E+00  0.0000E+00  0.0000E+00  0.0000E+00
      averages -1.1372E+04  0.0000E+00  1.0390E+05  8.9072E+04  0.0000E+00  0.0000E+00  0.0000E+00  1.4831E+04  0.0000E+00
                8.6151E+03  0.0000E+00  0.0000E+00  0.0000E+00  9.0000E+01  9.0000E+01  9.0000E+01  0.0000E+00 -6.0835E-02
 ----------------------------------------------------------------------------------------------------------------------------------
           540 -4.3239E+03  2.9825E+02 -5.4459E+04 -5.4459E+04  0.0000E+00  0.0000E+00  0.0000E+00  0.0000E+00  0.0000E+00
       0.54000 -1.8345E+04  0.0000E+00  1.2802E+05  1.0748E+05  0.0000E+00  0.0000E+00  0.0000E+00  2.0532E+04  0.0000E+00
         0.246  8.6151E+03  0.0000E+00  0.0000E+00  0.0000E+00  9.0000E+01  9.0000E+01  9.0000E+01  0.0000E+00 -1.7647E-01

       rolling -4.3240E+03  2.9246E+02 -5.3834E+04 -5.3834E+04  0.0000E+00  0.0000E+00  0.0000E+00  0.0000E+00  0.0000E+00
      averages -1.2553E+04  0.0000E+00  1.0793E+05  9.2281E+04  0.0000E+00  0.0000E+00  0.0000E+00  1.5652E+04  0.0000E+00
                8.6151E+03  0.0000E+00  0.0000E+00  0.0000E+00  9.0000E+01  9.0000E+01  9.0000E+01  0.0000E+00 -8.0257E-02
 ----------------------------------------------------------------------------------------------------------------------------------
           550 -4.3241E+03  3.0085E+02 -5.4800E+04 -5.4800E+04  0.0000E+00  0.0000E+00  0.0000E+00  0.0000E+00  0.0000E+00
       0.55000 -2.0412E+04  0.0000E+00  1.3526E+05  1.1255E+05  0.0000E+00  0.0000E+00  0.0000E+00  2.2705E+04  0.0000E+00
         0.250  8.6151E+03  0.0000E+00  0.0000E+00  0.0000E+00  9.0000E+01  9.0000E+01  9.0000E+01  0.0000E+00 -2.1031E-01

       rolling -4.3240E+03  2.9381E+02 -5.3995E+04 -5.3995E+04  0.0000E+00  0.0000E+00  0.0000E+00  0.0000E+00  0.0000E+00
      averages -1.3896E+04  0.0000E+00  1.1255E+05  9.5879E+04  0.0000E+00  0.0000E+00  0.0000E+00  1.6666E+04  0.0000E+00
                8.6151E+03  0.0000E+00  0.0000E+00  0.0000E+00  9.0000E+01  9.0000E+01  9.0000E+01  0.0000E+00 -1.0232E-01
 ----------------------------------------------------------------------------------------------------------------------------------
 ----------------------------------------------------------------------------------------------------------------------------------

          step     eng_tot    temp_tot     eng_cfg     eng_src     eng_cou     eng_bnd     eng_ang     eng_dih     eng_tet
      time(ps)      eng_pv    temp_rot     vir_cfg     vir_src     vir_cou     vir_bnd     vir_ang     vir_con     vir_tet
      cpu  (s)      volume    temp_shl     eng_shl     vir_shl       alpha        beta       gamma     vir_pmf       press

 ----------------------------------------------------------------------------------------------------------------------------------
           560 -4.3242E+03  3.0251E+02 -5.4992E+04 -5.4992E+04  0.0000E+00  0.0000E+00  0.0000E+00  0.0000E+00  0.0000E+00
       0.56000 -2.1676E+04  0.0000E+00  1.3979E+05  1.1515E+05  0.0000E+00  0.0000E+00  0.0000E+00  2.4639E+04  0.0000E+00
         0.253  8.6151E+03  0.0000E+00  0.0000E+00  0.0000E+00  9.0000E+01  9.0000E+01  9.0000E+01  0.0000E+00 -2.3143E-01

       rolling -4.3240E+03  2.9534E+02 -5.4181E+04 -5.4181E+04  0.0000E+00  0.0000E+00  0.0000E+00  0.0000E+00  0.0000E+00
      averages -1.5345E+04  0.0000E+00  1.1755E+05  9.9689E+04  0.0000E+00  0.0000E+00  0.0000E+00  1.7862E+04  0.0000E+00
                8.6151E+03  0.0000E+00  0.0000E+00  0.0000E+00  9.0000E+01  9.0000E+01  9.0000E+01  0.0000E+00 -1.2615E-01
 ----------------------------------------------------------------------------------------------------------------------------------
           570 -4.3242E+03  3.0245E+02 -5.4913E+04 -5.4913E+04  0.0000E+00  0.0000E+00  0.0000E+00  0.0000E+00  0.0000E+00
       0.57000 -2.1524E+04  0.0000E+00  1.3953E+05  1.1355E+05  0.0000E+00  0.0000E+00  0.0000E+00  2.5979E+04  0.0000E+00
         0.257  8.6151E+03  0.0000E+00  0.0000E+00  0.0000E+00  9.0000E+01  9.0000E+01  9.0000E+01  0.0000E+00 -2.3013E-01

       rolling -4.3240E+03  2.9683E+02 -5.4355E+04 -5.4355E+04  0.0000E+00  0.0000E+00  0.0000E+00  0.0000E+00  0.0000E+00
      averages -1.6706E+04  0.0000E+00  1.2229E+05  1.0314E+05  0.0000E+00  0.0000E+00  0.0000E+00  1.9147E+04  0.0000E+00
                8.6151E+03  0.0000E+00  0.0000E+00  0.0000E+00  9.0000E+01  9.0000E+01  9.0000E+01  0.0000E+00 -1.4864E-01
 ----------------------------------------------------------------------------------------------------------------------------------
           580 -4.3241E+03  3.0106E+02 -5.4625E+04 -5.4625E+04  0.0000E+00  0.0000E+00  0.0000E+00  0.0000E+00  0.0000E+00
       0.58000 -2.0216E+04  0.0000E+00  1.3536E+05  1.0854E+05  0.0000E+00  0.0000E+00  0.0000E+00  2.6823E+04  0.0000E+00
         0.260  8.6151E+03  0.0000E+00  0.0000E+00  0.0000E+00  9.0000E+01  9.0000E+01  9.0000E+01  0.0000E+00 -2.1051E-01

       rolling -4.3241E+03  2.9800E+02 -5.4476E+04 -5.4476E+04  0.0000E+00  0.0000E+00  0.0000E+00  0.0000E+00  0.0000E+00
      averages -1.7766E+04  0.0000E+00  1.2603E+05  1.0562E+05  0.0000E+00  0.0000E+00  0.0000E+00  2.0413E+04  0.0000E+00
                8.6151E+03  0.0000E+00  0.0000E+00  0.0000E+00  9.0000E+01  9.0000E+01  9.0000E+01  0.0000E+00 -1.6642E-01
 ----------------------------------------------------------------------------------------------------------------------------------
           590 -4.3240E+03  2.9931E+02 -5.4280E+04 -5.4280E+04  0.0000E+00  0.0000E+00  0.0000E+00  0.0000E+00  0.0000E+00
       0.59000 -1.8400E+04  0.0000E+00  1.2956E+05  1.0229E+05  0.0000E+00  0.0000E+00  0.0000E+00  2.7269E+04  0.0000E+00
         0.264  8.6151E+03  0.0000E+00  0.0000E+00  0.0000E+00  9.0000E+01  9.0000E+01  9.0000E+01  0.0000E+00 -1.8284E-01

       rolling -4.3241E+03  2.9871E+02 -5.4524E+04 -5.4524E+04  0.0000E+00  0.0000E+00  0.0000E+00  0.0000E+00  0.0000E+00
      averages -1.8406E+04  0.0000E+00  1.2838E+05  1.0679E+05  0.0000E+00  0.0000E+00  0.0000E+00  2.1582E+04  0.0000E+00
                8.6151E+03  0.0000E+00  0.0000E+00  0.0000E+00  9.0000E+01  9.0000E+01  9.0000E+01  0.0000E+00 -1.7758E-01
 ----------------------------------------------------------------------------------------------------------------------------------
           600 -4.3240E+03  2.9784E+02 -5.3981E+04 -5.3981E+04  0.0000E+00  0.0000E+00  0.0000E+00  0.0000E+00  0.0000E+00
       0.60000 -1.6458E+04  0.0000E+00  1.2347E+05  9.6284E+04  0.0000E+00  0.0000E+00  0.0000E+00  2.7182E+04  0.0000E+00
         0.268  8.6151E+03  0.0000E+00  0.0000E+00  0.0000E+00  9.0000E+01  9.0000E+01  9.0000E+01  0.0000E+00 -1.5317E-01

       rolling -4.3240E+03  2.9903E+02 -5.4508E+04 -5.4508E+04  0.0000E+00  0.0000E+00  0.0000E+00  0.0000E+00  0.0000E+00
      averages -1.8638E+04  0.0000E+00  1.2937E+05  1.0676E+05  0.0000E+00  0.0000E+00  0.0000E+00  2.2619E+04  0.0000E+00
                8.6151E+03  0.0000E+00  0.0000E+00  0.0000E+00  9.0000E+01  9.0000E+01  9.0000E+01  0.0000E+00 -1.8231E-01
 ----------------------------------------------------------------------------------------------------------------------------------
           610 -4.3241E+03  2.9641E+02 -5.3686E+04 -5.3686E+04  0.0000E+00  0.0000E+00  0.0000E+00  0.0000E+00  0.0000E+00
       0.61000 -1.4198E+04  0.0000E+00  1.1644E+05  9.0183E+04  0.0000E+00  0.0000E+00  0.0000E+00  2.6254E+04  0.0000E+00
         0.271  8.6151E+03  0.0000E+00  0.0000E+00  0.0000E+00  9.0000E+01  9.0000E+01  9.0000E+01  0.0000E+00 -1.1850E-01

       rolling -4.3240E+03  2.9911E+02 -5.4452E+04 -5.4452E+04  0.0000E+00  0.0000E+00  0.0000E+00  0.0000E+00  0.0000E+00
      averages -1.8547E+04  0.0000E+00  1.2933E+05  1.0582E+05  0.0000E+00  0.0000E+00  0.0000E+00  2.3509E+04  0.0000E+00
                8.6151E+03  0.0000E+00  0.0000E+00  0.0000E+00  9.0000E+01  9.0000E+01  9.0000E+01  0.0000E+00 -1.8195E-01
 ----------------------------------------------------------------------------------------------------------------------------------
           620 -4.3242E+03  2.9430E+02 -5.3282E+04 -5.3282E+04  0.0000E+00  0.0000E+00  0.0000E+00  0.0000E+00  0.0000E+00
       0.62000 -1.1151E+04  0.0000E+00  1.0684E+05  8.2629E+04  0.0000E+00  0.0000E+00  0.0000E+00  2.4214E+04  0.0000E+00
         0.275  8.6151E+03  0.0000E+00  0.0000E+00  0.0000E+00  9.0000E+01  9.0000E+01  9.0000E+01  0.0000E+00 -7.1427E-02

       rolling -4.3241E+03  2.9902E+02 -5.4370E+04 -5.4370E+04  0.0000E+00  0.0000E+00  0.0000E+00  0.0000E+00  0.0000E+00
      averages -1.8173E+04  0.0000E+00  1.2839E+05  1.0418E+05  0.0000E+00  0.0000E+00  0.0000E+00  2.4211E+04  0.0000E+00
                8.6151E+03  0.0000E+00  0.0000E+00  0.0000E+00  9.0000E+01  9.0000E+01  9.0000E+01  0.0000E+00 -1.7712E-01
 ----------------------------------------------------------------------------------------------------------------------------------
           630 -4.3242E+03  2.9101E+02 -5.2686E+04 -5.2686E+04  0.0000E+00  0.0000E+00  0.0000E+00  0.0000E+00  0.0000E+00
       0.63000 -7.0359E+03  0.0000E+00  9.3675E+04  7.2704E+04  0.0000E+00  0.0000E+00  0.0000E+00  2.0971E+04  0.0000E+00
         0.279  8.6151E+03  0.0000E+00  0.0000E+00  0.0000E+00  9.0000E+01  9.0000E+01  9.0000E+01  0.0000E+00 -7.5129E-03

       rolling -4.3241E+03  2.9868E+02 -5.4246E+04 -5.4246E+04  0.0000E+00  0.0000E+00  0.0000E+00  0.0000E+00  0.0000E+00
      averages -1.7425E+04  0.0000E+00  1.2624E+05  1.0163E+05  0.0000E+00  0.0000E+00  0.0000E+00  2.4605E+04  0.0000E+00
                8.6151E+03  0.0000E+00  0.0000E+00  0.0000E+00  9.0000E+01  9.0000E+01  9.0000E+01  0.0000E+00 -1.6638E-01
 ----------------------------------------------------------------------------------------------------------------------------------
 ----------------------------------------------------------------------------------------------------------------------------------

          step     eng_tot    temp_tot     eng_cfg     eng_src     eng_cou     eng_bnd     eng_ang     eng_dih     eng_tet
      time(ps)      eng_pv    temp_rot     vir_cfg     vir_src     vir_cou     vir_bnd     vir_ang     vir_con     vir_tet
      cpu  (s)      volume    temp_shl     eng_shl     vir_shl       alpha        beta       gamma     vir_pmf       press

 ----------------------------------------------------------------------------------------------------------------------------------
           640 -4.3240E+03  2.8679E+02 -5.1937E+04 -5.1937E+04  0.0000E+00  0.0000E+00  0.0000E+00  0.0000E+00  0.0000E+00
       0.64000 -2.2012E+03  0.0000E+00  7.8075E+04  6.1185E+04  0.0000E+00  0.0000E+00  0.0000E+00  1.6890E+04  0.0000E+00
         0.282  8.6151E+03  0.0000E+00  0.0000E+00  0.0000E+00  9.0000E+01  9.0000E+01  9.0000E+01  0.0000E+00  6.7681E-02

       rolling -4.3241E+03  2.9782E+02 -5.4041E+04 -5.4041E+04  0.0000E+00  0.0000E+00  0.0000E+00  0.0000E+00  0.0000E+00
      averages -1.6111E+04  0.0000E+00  1.2224E+05  9.7728E+04  0.0000E+00  0.0000E+00  0.0000E+00  2.4508E+04  0.0000E+00
                8.6151E+03  0.0000E+00  0.0000E+00  0.0000E+00  9.0000E+01  9.0000E+01  9.0000E+01  0.0000E+00 -1.4670E-01
 ----------------------------------------------------------------------------------------------------------------------------------
           650 -4.3237E+03  2.8349E+02 -5.1324E+04 -5.1324E+04  0.0000E+00  0.0000E+00  0.0000E+00  0.0000E+00  0.0000E+00
       0.65000  1.7642E+03  0.0000E+00  6.5400E+04  5.2087E+04  0.0000E+00  0.0000E+00  0.0000E+00  1.3313E+04  0.0000E+00
         0.286  8.6151E+03  0.0000E+00  0.0000E+00  0.0000E+00  9.0000E+01  9.0000E+01  9.0000E+01  0.0000E+00  1.2899E-01

       rolling -4.3241E+03  2.9633E+02 -5.3733E+04 -5.3733E+04  0.0000E+00  0.0000E+00  0.0000E+00  0.0000E+00  0.0000E+00
      averages -1.4146E+04  0.0000E+00  1.1608E+05  9.2267E+04  0.0000E+00  0.0000E+00  0.0000E+00  2.3816E+04  0.0000E+00
                8.6151E+03  0.0000E+00  0.0000E+00  0.0000E+00  9.0000E+01  9.0000E+01  9.0000E+01  0.0000E+00 -1.1675E-01
 ----------------------------------------------------------------------------------------------------------------------------------
           660 -4.3238E+03  2.8368E+02 -5.1254E+04 -5.1254E+04  0.0000E+00  0.0000E+00  0.0000E+00  0.0000E+00  0.0000E+00
       0.66000  2.7076E+03  0.0000E+00  6.2933E+04  5.0830E+04  0.0000E+00  0.0000E+00  0.0000E+00  1.2103E+04  0.0000E+00
         0.289  8.6151E+03  0.0000E+00  0.0000E+00  0.0000E+00  9.0000E+01  9.0000E+01  9.0000E+01  0.0000E+00  1.4232E-01

       rolling -4.3240E+03  2.9447E+02 -5.3363E+04 -5.3363E+04  0.0000E+00  0.0000E+00  0.0000E+00  0.0000E+00  0.0000E+00
      averages -1.1767E+04  0.0000E+00  1.0858E+05  8.5901E+04  0.0000E+00  0.0000E+00  0.0000E+00  2.2676E+04  0.0000E+00
                8.6151E+03  0.0000E+00  0.0000E+00  0.0000E+00  9.0000E+01  9.0000E+01  9.0000E+01  0.0000E+00 -8.0292E-02
 ----------------------------------------------------------------------------------------------------------------------------------
           670 -4.3241E+03  2.8690E+02 -5.1650E+04 -5.1650E+04  0.0000E+00  0.0000E+00  0.0000E+00  0.0000E+00  0.0000E+00
       0.67000  9.4180E+02  0.0000E+00  6.9589E+04  5.6477E+04  0.0000E+00  0.0000E+00  0.0000E+00  1.3112E+04  0.0000E+00
         0.293  8.6151E+03  0.0000E+00  0.0000E+00  0.0000E+00  9.0000E+01  9.0000E+01  9.0000E+01  0.0000E+00  1.1260E-01

       rolling -4.3240E+03  2.9274E+02 -5.3012E+04 -5.3012E+04  0.0000E+00  0.0000E+00  0.0000E+00  0.0000E+00  0.0000E+00
      averages -9.4096E+03  0.0000E+00  1.0119E+05  7.9801E+04  0.0000E+00  0.0000E+00  0.0000E+00  2.1389E+04  0.0000E+00
                8.6151E+03  0.0000E+00  0.0000E+00  0.0000E+00  9.0000E+01  9.0000E+01  9.0000E+01  0.0000E+00 -4.4241E-02
 ----------------------------------------------------------------------------------------------------------------------------------
           680 -4.3242E+03  2.9017E+02 -5.2045E+04 -5.2045E+04  0.0000E+00  0.0000E+00  0.0000E+00  0.0000E+00  0.0000E+00
       0.68000 -1.1309E+03  0.0000E+00  7.7219E+04  6.2965E+04  0.0000E+00  0.0000E+00  0.0000E+00  1.4254E+04  0.0000E+00
         0.297  8.6151E+03  0.0000E+00  0.0000E+00  0.0000E+00  9.0000E+01  9.0000E+01  9.0000E+01  0.0000E+00  7.7843E-02

       rolling -4.3240E+03  2.9144E+02 -5.2723E+04 -5.2723E+04  0.0000E+00  0.0000E+00  0.0000E+00  0.0000E+00  0.0000E+00
      averages -7.3467E+03  0.0000E+00  9.4838E+04  7.4717E+04  0.0000E+00  0.0000E+00  0.0000E+00  2.0121E+04  0.0000E+00
                8.6151E+03  0.0000E+00  0.0000E+00  0.0000E+00  9.0000E+01  9.0000E+01  9.0000E+01  0.0000E+00 -1.2923E-02
 ----------------------------------------------------------------------------------------------------------------------------------
           690 -4.3239E+03  2.9280E+02 -5.2327E+04 -5.2327E+04  0.0000E+00  0.0000E+00  0.0000E+00  0.0000E+00  0.0000E+00
       0.69000 -2.8163E+03  0.0000E+00  8.3509E+04  6.8771E+04  0.0000E+00  0.0000E+00  0.0000E+00  1.4739E+04  0.0000E+00
         0.301  8.6151E+03  0.0000E+00  0.0000E+00  0.0000E+00  9.0000E+01  9.0000E+01  9.0000E+01  0.0000E+00  4.9068E-02

       rolling -4.3240E+03  2.9059E+02 -5.2500E+04 -5.2500E+04  0.0000E+00  0.0000E+00  0.0000E+00  0.0000E+00  0.0000E+00
      averages -5.6277E+03  0.0000E+00  8.9679E+04  7.0814E+04  0.0000E+00  0.0000E+00  0.0000E+00  1.8865E+04  0.0000E+00
                8.6151E+03  0.0000E+00  0.0000E+00  0.0000E+00  9.0000E+01  9.0000E+01  9.0000E+01  0.0000E+00  1.2857E-02
 ----------------------------------------------------------------------------------------------------------------------------------
           700 -4.3239E+03  2.9654E+02 -5.2780E+04 -5.2780E+04  0.0000E+00  0.0000E+00  0.0000E+00  0.0000E+00  0.0000E+00
       0.70000 -5.4642E+03  0.0000E+00  9.3062E+04  7.7354E+04  0.0000E+00  0.0000E+00  0.0000E+00  1.5709E+04  0.0000E+00
         0.304  8.6151E+03  0.0000E+00  0.0000E+00  0.0000E+00  9.0000E+01  9.0000E+01  9.0000E+01  0.0000E+00  4.9629E-03

       rolling -4.3240E+03  2.9022E+02 -5.2344E+04 -5.2344E+04  0.0000E+00  0.0000E+00  0.0000E+00  0.0000E+00  0.0000E+00
[...]
         39870 -4.3241E+03  2.5890E+02 -5.6208E+04 -5.6208E+04  0.0000E+00  0.0000E+00  0.0000E+00  0.0000E+00  0.0000E+00
      39.87000 -2.3309E+04  0.0000E+00  1.0648E+05  9.1639E+04  0.0000E+00  0.0000E+00  0.0000E+00  1.4842E+04  0.0000E+00
        15.166  8.6151E+03  0.0000E+00  0.0000E+00  0.0000E+00  9.0000E+01  9.0000E+01  9.0000E+01  0.0000E+00 -1.2869E-01

       rolling -4.3241E+03  2.5752E+02 -5.6967E+04 -5.6967E+04  0.0000E+00  0.0000E+00  0.0000E+00  0.0000E+00  0.0000E+00
      averages -2.3994E+04  0.0000E+00  1.0516E+05  9.2894E+04  0.0000E+00  0.0000E+00  0.0000E+00  1.2268E+04  0.0000E+00
                8.6151E+03  0.0000E+00  0.0000E+00  0.0000E+00  9.0000E+01  9.0000E+01  9.0000E+01  0.0000E+00 -1.2405E-01
 ----------------------------------------------------------------------------------------------------------------------------------
         39880 -4.3240E+03  2.5963E+02 -5.6015E+04 -5.6015E+04  0.0000E+00  0.0000E+00  0.0000E+00  0.0000E+00  0.0000E+00
      39.88000 -2.3029E+04  0.0000E+00  1.0680E+05  9.1588E+04  0.0000E+00  0.0000E+00  0.0000E+00  1.5213E+04  0.0000E+00
        15.170  8.6151E+03  0.0000E+00  0.0000E+00  0.0000E+00  9.0000E+01  9.0000E+01  9.0000E+01  0.0000E+00 -1.2915E-01

       rolling -4.3241E+03  2.5767E+02 -5.6826E+04 -5.6826E+04  0.0000E+00  0.0000E+00  0.0000E+00  0.0000E+00  0.0000E+00
      averages -2.3893E+04  0.0000E+00  1.0540E+05  9.2683E+04  0.0000E+00  0.0000E+00  0.0000E+00  1.2717E+04  0.0000E+00
                8.6151E+03  0.0000E+00  0.0000E+00  0.0000E+00  9.0000E+01  9.0000E+01  9.0000E+01  0.0000E+00 -1.2506E-01
 ----------------------------------------------------------------------------------------------------------------------------------
         39890 -4.3239E+03  2.6140E+02 -5.5957E+04 -5.5957E+04  0.0000E+00  0.0000E+00  0.0000E+00  0.0000E+00  0.0000E+00
      39.89000 -2.3392E+04  0.0000E+00  1.0946E+05  9.3584E+04  0.0000E+00  0.0000E+00  0.0000E+00  1.5878E+04  0.0000E+00
        15.174  8.6151E+03  0.0000E+00  0.0000E+00  0.0000E+00  9.0000E+01  9.0000E+01  9.0000E+01  0.0000E+00 -1.4023E-01

       rolling -4.3241E+03  2.5793E+02 -5.6674E+04 -5.6674E+04  0.0000E+00  0.0000E+00  0.0000E+00  0.0000E+00  0.0000E+00
      averages -2.3762E+04  0.0000E+00  1.0567E+05  9.2457E+04  0.0000E+00  0.0000E+00  0.0000E+00  1.3214E+04  0.0000E+00
                8.6151E+03  0.0000E+00  0.0000E+00  0.0000E+00  9.0000E+01  9.0000E+01  9.0000E+01  0.0000E+00 -1.2604E-01
 ----------------------------------------------------------------------------------------------------------------------------------
         39900 -4.3239E+03  2.6512E+02 -5.6179E+04 -5.6179E+04  0.0000E+00  0.0000E+00  0.0000E+00  0.0000E+00  0.0000E+00
      39.90000 -2.5105E+04  0.0000E+00  1.1688E+05  9.9498E+04  0.0000E+00  0.0000E+00  0.0000E+00  1.7387E+04  0.0000E+00
        15.177  8.6151E+03  0.0000E+00  0.0000E+00  0.0000E+00  9.0000E+01  9.0000E+01  9.0000E+01  0.0000E+00 -1.7315E-01

       rolling -4.3241E+03  2.5850E+02 -5.6541E+04 -5.6541E+04  0.0000E+00  0.0000E+00  0.0000E+00  0.0000E+00  0.0000E+00
      averages -2.3738E+04  0.0000E+00  1.0645E+05  9.2645E+04  0.0000E+00  0.0000E+00  0.0000E+00  1.3804E+04  0.0000E+00
                8.6151E+03  0.0000E+00  0.0000E+00  0.0000E+00  9.0000E+01  9.0000E+01  9.0000E+01  0.0000E+00 -1.2920E-01
 ----------------------------------------------------------------------------------------------------------------------------------
         39910 -4.3241E+03  2.7064E+02 -5.6654E+04 -5.6654E+04  0.0000E+00  0.0000E+00  0.0000E+00  0.0000E+00  0.0000E+00
      39.91000 -2.8054E+04  0.0000E+00  1.2868E+05  1.0884E+05  0.0000E+00  0.0000E+00  0.0000E+00  1.9836E+04  0.0000E+00
        15.181  8.6151E+03  0.0000E+00  0.0000E+00  0.0000E+00  9.0000E+01  9.0000E+01  9.0000E+01  0.0000E+00 -2.2611E-01

       rolling -4.3241E+03  2.5958E+02 -5.6461E+04 -5.6461E+04  0.0000E+00  0.0000E+00  0.0000E+00  0.0000E+00  0.0000E+00
      averages -2.3979E+04  0.0000E+00  1.0827E+05  9.3710E+04  0.0000E+00  0.0000E+00  0.0000E+00  1.4562E+04  0.0000E+00
                8.6151E+03  0.0000E+00  0.0000E+00  0.0000E+00  9.0000E+01  9.0000E+01  9.0000E+01  0.0000E+00 -1.3699E-01
 ----------------------------------------------------------------------------------------------------------------------------------
 ----------------------------------------------------------------------------------------------------------------------------------

          step     eng_tot    temp_tot     eng_cfg     eng_src     eng_cou     eng_bnd     eng_ang     eng_dih     eng_tet
      time(ps)      eng_pv    temp_rot     vir_cfg     vir_src     vir_cou     vir_bnd     vir_ang     vir_con     vir_tet
      cpu  (s)      volume    temp_shl     eng_shl     vir_shl       alpha        beta       gamma     vir_pmf       press

 ----------------------------------------------------------------------------------------------------------------------------------
         39920 -4.3243E+03  2.7653E+02 -5.7158E+04 -5.7158E+04  0.0000E+00  0.0000E+00  0.0000E+00  0.0000E+00  0.0000E+00
      39.92000 -3.1093E+04  0.0000E+00  1.4095E+05  1.1845E+05  0.0000E+00  0.0000E+00  0.0000E+00  2.2502E+04  0.0000E+00
        15.185  8.6151E+03  0.0000E+00  0.0000E+00  0.0000E+00  9.0000E+01  9.0000E+01  9.0000E+01  0.0000E+00 -2.8096E-01

       rolling -4.3241E+03  2.6129E+02 -5.6450E+04 -5.6450E+04  0.0000E+00  0.0000E+00  0.0000E+00  0.0000E+00  0.0000E+00
      averages -2.4550E+04  0.0000E+00  1.1137E+05  9.5848E+04  0.0000E+00  0.0000E+00  0.0000E+00  1.5523E+04  0.0000E+00
                8.6151E+03  0.0000E+00  0.0000E+00  0.0000E+00  9.0000E+01  9.0000E+01  9.0000E+01  0.0000E+00 -1.5048E-01
 ----------------------------------------------------------------------------------------------------------------------------------
         39930 -4.3243E+03  2.8121E+02 -5.7446E+04 -5.7446E+04  0.0000E+00  0.0000E+00  0.0000E+00  0.0000E+00  0.0000E+00
      39.93000 -3.2914E+04  0.0000E+00  1.4926E+05  1.2485E+05  0.0000E+00  0.0000E+00  0.0000E+00  2.4412E+04  0.0000E+00
        15.189  8.6151E+03  0.0000E+00  0.0000E+00  0.0000E+00  9.0000E+01  9.0000E+01  9.0000E+01  0.0000E+00 -3.1697E-01

       rolling -4.3241E+03  2.6353E+02 -5.6494E+04 -5.6494E+04  0.0000E+00  0.0000E+00  0.0000E+00  0.0000E+00  0.0000E+00
      averages -2.5381E+04  0.0000E+00  1.1551E+05  9.8864E+04  0.0000E+00  0.0000E+00  0.0000E+00  1.6644E+04  0.0000E+00
                8.6151E+03  0.0000E+00  0.0000E+00  0.0000E+00  9.0000E+01  9.0000E+01  9.0000E+01  0.0000E+00 -1.6855E-01
 ----------------------------------------------------------------------------------------------------------------------------------
         39940 -4.3243E+03  2.8393E+02 -5.7402E+04 -5.7402E+04  0.0000E+00  0.0000E+00  0.0000E+00  0.0000E+00  0.0000E+00
      39.94000 -3.2862E+04  0.0000E+00  1.5140E+05  1.2634E+05  0.0000E+00  0.0000E+00  0.0000E+00  2.5060E+04  0.0000E+00
        15.192  8.6151E+03  0.0000E+00  0.0000E+00  0.0000E+00  9.0000E+01  9.0000E+01  9.0000E+01  0.0000E+00 -3.2366E-01

       rolling -4.3241E+03  2.6612E+02 -5.6564E+04 -5.6564E+04  0.0000E+00  0.0000E+00  0.0000E+00  0.0000E+00  0.0000E+00
      averages -2.6304E+04  0.0000E+00  1.2012E+05  1.0230E+05  0.0000E+00  0.0000E+00  0.0000E+00  1.7823E+04  0.0000E+00
                8.6151E+03  0.0000E+00  0.0000E+00  0.0000E+00  9.0000E+01  9.0000E+01  9.0000E+01  0.0000E+00 -1.8852E-01
 ----------------------------------------------------------------------------------------------------------------------------------
         39950 -4.3242E+03  2.8483E+02 -5.7053E+04 -5.7053E+04  0.0000E+00  0.0000E+00  0.0000E+00  0.0000E+00  0.0000E+00
      39.95000 -3.1069E+04  0.0000E+00  1.4777E+05  1.2319E+05  0.0000E+00  0.0000E+00  0.0000E+00  2.4585E+04  0.0000E+00
        15.196  8.6151E+03  0.0000E+00  0.0000E+00  0.0000E+00  9.0000E+01  9.0000E+01  9.0000E+01  0.0000E+00 -3.0305E-01

       rolling -4.3241E+03  2.6883E+02 -5.6627E+04 -5.6627E+04  0.0000E+00  0.0000E+00  0.0000E+00  0.0000E+00  0.0000E+00
      averages -2.7130E+04  0.0000E+00  1.2456E+05  1.0562E+05  0.0000E+00  0.0000E+00  0.0000E+00  1.8944E+04  0.0000E+00
                8.6151E+03  0.0000E+00  0.0000E+00  0.0000E+00  9.0000E+01  9.0000E+01  9.0000E+01  0.0000E+00 -2.0741E-01
 ----------------------------------------------------------------------------------------------------------------------------------
         39960 -4.3242E+03  2.8447E+02 -5.6495E+04 -5.6495E+04  0.0000E+00  0.0000E+00  0.0000E+00  0.0000E+00  0.0000E+00
      39.96000 -2.8094E+04  0.0000E+00  1.4024E+05  1.1675E+05  0.0000E+00  0.0000E+00  0.0000E+00  2.3493E+04  0.0000E+00
        15.200  8.6151E+03  0.0000E+00  0.0000E+00  0.0000E+00  9.0000E+01  9.0000E+01  9.0000E+01  0.0000E+00 -2.6394E-01

       rolling -4.3241E+03  2.7150E+02 -5.6656E+04 -5.6656E+04  0.0000E+00  0.0000E+00  0.0000E+00  0.0000E+00  0.0000E+00
      averages -2.7716E+04  0.0000E+00  1.2834E+05  1.0842E+05  0.0000E+00  0.0000E+00  0.0000E+00  1.9927E+04  0.0000E+00
                8.6151E+03  0.0000E+00  0.0000E+00  0.0000E+00  9.0000E+01  9.0000E+01  9.0000E+01  0.0000E+00 -2.2289E-01
 ----------------------------------------------------------------------------------------------------------------------------------
         39970 -4.3242E+03  2.8319E+02 -5.5780E+04 -5.5780E+04  0.0000E+00  0.0000E+00  0.0000E+00  0.0000E+00  0.0000E+00
      39.97000 -2.4297E+04  0.0000E+00  1.2998E+05  1.0791E+05  0.0000E+00  0.0000E+00  0.0000E+00  2.2075E+04  0.0000E+00
        15.204  8.6151E+03  0.0000E+00  0.0000E+00  0.0000E+00  9.0000E+01  9.0000E+01  9.0000E+01  0.0000E+00 -2.1199E-01

       rolling -4.3241E+03  2.7402E+02 -5.6638E+04 -5.6638E+04  0.0000E+00  0.0000E+00  0.0000E+00  0.0000E+00  0.0000E+00
      averages -2.7978E+04  0.0000E+00  1.3118E+05  1.1045E+05  0.0000E+00  0.0000E+00  0.0000E+00  2.0735E+04  0.0000E+00
                8.6151E+03  0.0000E+00  0.0000E+00  0.0000E+00  9.0000E+01  9.0000E+01  9.0000E+01  0.0000E+00 -2.3364E-01
 ----------------------------------------------------------------------------------------------------------------------------------
         39980 -4.3240E+03  2.8140E+02 -5.4973E+04 -5.4973E+04  0.0000E+00  0.0000E+00  0.0000E+00  0.0000E+00  0.0000E+00
      39.98000 -2.0077E+04  0.0000E+00  1.1832E+05  9.7874E+04  0.0000E+00  0.0000E+00  0.0000E+00  2.0447E+04  0.0000E+00
        15.208  8.6151E+03  0.0000E+00  0.0000E+00  0.0000E+00  9.0000E+01  9.0000E+01  9.0000E+01  0.0000E+00 -1.5351E-01

       rolling -4.3241E+03  2.7631E+02 -5.6562E+04 -5.6562E+04  0.0000E+00  0.0000E+00  0.0000E+00  0.0000E+00  0.0000E+00
      averages -2.7861E+04  0.0000E+00  1.3288E+05  1.1153E+05  0.0000E+00  0.0000E+00  0.0000E+00  2.1348E+04  0.0000E+00
                8.6151E+03  0.0000E+00  0.0000E+00  0.0000E+00  9.0000E+01  9.0000E+01  9.0000E+01  0.0000E+00 -2.3874E-01
 ----------------------------------------------------------------------------------------------------------------------------------
         39990 -4.3237E+03  2.8152E+02 -5.4458E+04 -5.4458E+04  0.0000E+00  0.0000E+00  0.0000E+00  0.0000E+00  0.0000E+00
      39.99000 -1.7325E+04  0.0000E+00  1.1171E+05  9.1907E+04  0.0000E+00  0.0000E+00  0.0000E+00  1.9800E+04  0.0000E+00
        15.211  8.6151E+03  0.0000E+00  0.0000E+00  0.0000E+00  9.0000E+01  9.0000E+01  9.0000E+01  0.0000E+00 -1.1844E-01

       rolling -4.3241E+03  2.7838E+02 -5.6429E+04 -5.6429E+04  0.0000E+00  0.0000E+00  0.0000E+00  0.0000E+00  0.0000E+00
      averages -2.7379E+04  0.0000E+00  1.3347E+05  1.1168E+05  0.0000E+00  0.0000E+00  0.0000E+00  2.1788E+04  0.0000E+00
                8.6151E+03  0.0000E+00  0.0000E+00  0.0000E+00  9.0000E+01  9.0000E+01  9.0000E+01  0.0000E+00 -2.3840E-01
 ----------------------------------------------------------------------------------------------------------------------------------
 ----------------------------------------------------------------------------------------------------------------------------------

          step     eng_tot    temp_tot     eng_cfg     eng_src     eng_cou     eng_bnd     eng_ang     eng_dih     eng_tet
      time(ps)      eng_pv    temp_rot     vir_cfg     vir_src     vir_cou     vir_bnd     vir_ang     vir_con     vir_tet
      cpu  (s)      volume    temp_shl     eng_shl     vir_shl       alpha        beta       gamma     vir_pmf       press

 ----------------------------------------------------------------------------------------------------------------------------------
         40000 -4.3239E+03  2.8607E+02 -5.4627E+04 -5.4627E+04  0.0000E+00  0.0000E+00  0.0000E+00  0.0000E+00  0.0000E+00
      40.00000 -1.7914E+04  0.0000E+00  1.1657E+05  9.5222E+04  0.0000E+00  0.0000E+00  0.0000E+00  2.1346E+04  0.0000E+00
        15.215  8.6151E+03  0.0000E+00  0.0000E+00  0.0000E+00  9.0000E+01  9.0000E+01  9.0000E+01  0.0000E+00 -1.3646E-01

       rolling -4.3241E+03  2.8042E+02 -5.6274E+04 -5.6274E+04  0.0000E+00  0.0000E+00  0.0000E+00  0.0000E+00  0.0000E+00
      averages -2.6698E+04  0.0000E+00  1.3351E+05  1.1133E+05  0.0000E+00  0.0000E+00  0.0000E+00  2.2175E+04  0.0000E+00
                8.6151E+03  0.0000E+00  0.0000E+00  0.0000E+00  9.0000E+01  9.0000E+01  9.0000E+01  0.0000E+00 -2.3520E-01
 ----------------------------------------------------------------------------------------------------------------------------------


 run terminating...  elapsed cpu time:       15.217 sec, job time:   700000.000 sec, close time:      100.000 sec



 sample of final configuration on node zero

        i       x(i)        y(i)        z(i)       vx(i)       vy(i)       vz(i)       fx(i)       fy(i)       fz(i)


        1  8.3551E+00  6.1736E+00 -7.8890E+00  1.1208E+00  7.3948E+00 -1.7249E+00  4.2077E+00 -8.4039E+01  4.8620E+01
        8  4.7616E+00  6.2703E+00  6.9452E+00  9.1121E+00 -8.9211E-01  3.4158E+00  6.2397E+01  4.5761E+01 -3.3516E+01
       15 -8.5089E+00 -1.7818E+00 -8.9201E+00 -3.0442E-01 -4.8195E-01  9.9786E-01 -7.8975E+01  9.7326E+01 -1.2495E+01
       22 -4.3931E+00  2.9639E+00 -1.9011E+00  8.0575E-01  7.5425E-01  3.7225E+00  4.9549E+00  6.8188E+00 -6.1848E+01
       29 -7.4117E+00  5.0728E+00 -5.9038E+00  1.0734E+00 -1.8758E+00 -5.5153E-01 -1.6683E+02 -2.1209E+01  6.3077E+01
       36  4.3041E+00 -4.0645E-01  3.1115E+00  4.5942E+00 -4.5130E+00 -4.8976E-01 -2.2144E+02 -1.4338E+02 -3.0501E+01
       43  1.2043E+00 -1.9350E+00  5.7847E+00 -8.2492E+00 -7.4456E+00  1.3676E+00 -3.8474E+02 -3.6807E+02  3.7196E+02
       50  2.3053E+00  2.5411E+00  9.0085E+00  1.8943E+00 -3.8631E+00 -2.5818E+00  1.0651E+02 -1.6977E+01 -2.2478E+00
       57  4.9569E+00  3.9984E+00 -6.5343E-01 -4.6687E+00 -7.6227E+00 -3.9350E+00 -2.1909E+02  3.8448E+02 -2.5350E+02
       64  8.9381E+00 -4.9519E+00  2.7523E+00  5.8419E+00 -2.9167E+00 -3.5017E-01 -7.1740E+01 -8.2335E+01 -7.2774E+01
       71  7.5202E+00  5.7542E+00  2.6170E+00  5.5422E-01  1.0894E+00  4.2453E+00 -1.1145E+03 -2.8598E+02 -1.8293E+03
       78  7.7871E+00  2.6535E+00 -9.8396E+00 -4.5168E+00 -1.8837E+00 -1.9316E+00 -8.3315E+01  4.5445E+02 -9.1366E+02
       85  4.6329E+00  8.8517E+00 -8.6753E+00  2.7865E+00  7.3630E-01 -6.4045E+00  9.5255E+01 -3.2330E+01  1.0980E+02
       92 -4.5599E+00  3.9398E+00 -8.3883E+00  2.7687E+00 -9.7579E+00 -2.1128E+00 -4.9437E+01 -1.3930E+02  6.9597E+01
       99 -9.8810E+00 -1.0116E+01 -9.1149E+00  1.5044E+00 -1.4449E+00 -9.0565E-01 -1.1063E+02 -8.1807E+01  1.0763E+01
      106  9.2125E+00  6.2122E+00  5.5315E+00  4.9217E+00 -3.0719E+00  2.0058E+00  9.9548E+02  2.5662E+02  2.1654E+03
      113  1.4901E+00 -2.1180E+00 -9.1059E-01 -3.0425E+00 -2.5569E+00 -1.9242E+00 -9.0038E+02  2.5538E+03  2.8042E+01
      120  8.3924E-01 -9.4613E+00  1.5969E+00 -3.7108E+00  2.6581E+00 -2.0211E-01 -2.4508E+02  1.2172E+02  9.5803E+01
      127  2.4492E+00 -6.4028E+00  4.1707E+00  5.4589E+00 -1.5185E+00  4.3122E-01 -1.1539E+02  2.1905E+02  1.6257E+01


 VNL skipping run statistics - skips per timestep: average    7.57 minimum    5 maximum   10


 constraints shake  run statistics - cycles per call/timestep: average  2.00 /  2.00 minimum   2 /   2 maximum   2 /   2
 constraints rattle run statistics - cycles per call/timestep: average  1.00 /  1.00 minimum   1 /   1 maximum   1 /   1


 run terminated after    40000 steps (    40.000 ps), final averages calculated over    40000 steps (    40.000 ps).


 ----------------------------------------------------------------------------------------------------------------------------------

          step     eng_tot    temp_tot     eng_cfg     eng_src     eng_cou     eng_bnd     eng_ang     eng_dih     eng_tet
      time(ps)      eng_pv    temp_rot     vir_cfg     vir_src     vir_cou     vir_bnd     vir_ang     vir_con     vir_tet
      cpu  (s)      volume    temp_shl     eng_shl     vir_shl       alpha        beta       gamma     vir_pmf       press

 ----------------------------------------------------------------------------------------------------------------------------------
         40000 -4.3241E+03  2.9981E+02 -5.5278E+04 -5.5278E+04  0.0000E+00  0.0000E+00  0.0000E+00  0.0000E+00  0.0000E+00
      40.00000 -9.3486E+03  0.0000E+00  9.9815E+04  8.0765E+04  0.0000E+00  0.0000E+00  0.0000E+00  1.9051E+04  0.0000E+00
        15.219  8.6151E+03  0.0000E+00  0.0000E+00  0.0000E+00  9.0000E+01  9.0000E+01  9.0000E+01  0.0000E+00 -2.5171E-02

       r.m.s.   1.7182E-01  2.1452E+01  1.6898E+03  1.6898E+03  0.0000E+00  0.0000E+00  0.0000E+00  0.0000E+00  0.0000E+00
      fluctu-   1.2672E+04  0.0000E+00  3.3072E+04  2.9091E+04  0.0000E+00  0.0000E+00  0.0000E+00  6.4229E+03  0.0000E+00
      ations    0.0000E+00  0.0000E+00  0.0000E+00  0.0000E+00  0.0000E+00  0.0000E+00  0.0000E+00  0.0000E+00  1.7397E-01
 ----------------------------------------------------------------------------------------------------------------------------------

 Extended energy:         3.4330E+03      r.m.s. fluctuations:    3.8303E+03

 ----------------------------------------------------------------------------------------------------------------------------------


            Approximate 3D Diffusion Coefficients and square root of MSDs

            atom         DC (10^-9 m^2 s^-1)   Sqrt[MSD] (Ang)

            N                 2.6303E+01          2.4581E+01


                Average pressure tensor  (katms)                              r.m.s. fluctuations

          -3.0517E-02 -4.4248E-03  5.2438E-03                          2.2938E-01  1.4235E-01  1.3438E-01
          -4.4248E-03 -2.0485E-02 -9.4671E-03                          1.4235E-01  2.3856E-01  1.4207E-01
           5.2438E-03 -9.4671E-03 -2.4512E-02                          1.3438E-01  1.4207E-01  2.3333E-01

            trace/3   -2.5171E-02



 time elapsed since job start:       15.219 sec



 *************************************************************************************************************************
 **************                                                                                             **************
 **************  Thank you for using the DL_POLY_4 package in your work.  Please, acknowledge our efforts   **************
 **************                                                                                             **************
 **************  by including the following references when publishing data obtained using DL_POLY_4:       **************
 **************                                                                                             **************
 **************  I.T. Todorov, W. Smith, K. Trachenko & M.T. Dove, `J. Mater. Chem.', 16, 1911-1918 (2006)  **************
 **************                                                                                             **************
 *************************************************************************************************************************

